 +-------------------------------------------------+
 |                                                 |
 |      CCC   AA    SSS  TTTTT  EEEEE  PPPP        |
 |     C     A  A  S       T    E      P   P       |
 |     C     AAAA   SS     T    EEE    PPPP        |
 |     C     A  A     S    T    E      P           |
 |      CCC  A  A  SSS     T    EEEEE  P           |
 |                                                 |
 +-------------------------------------------------+
 |                                                 |
 | Welcome to Academic Release CASTEP version 7.03 |
 | Ab Initio Total Energy Program                  |
 |                                                 |
 | Authors:                                        |
 | M. Segall, M. Probert, C. Pickard, P. Hasnip,   |
 | S. Clark, K. Refson, J. R. Yates, M. Payne      |
 |                                                 |
 | Contributors:                                   |
 | P. Lindan, P. Haynes, J. White, V. Milman,      |
 | N. Govind, M. Gibson, P. Tulip, V. Cocula,      |
 | B. Montanari, D. Quigley, M. Glover,            |
 | L. Bernasconi, A. Perlov, M. Plummer,           |
 | E. McNellis, J. Meyer, J. Gale, D. Jochym       |
 | J. Aarons, B. Walker, R. Gillen, D. Jones       |
 |                                                 |
 | Copyright (c) 2000 - 2014                       |
 |                                                 |
 |     Distributed under the terms of an           |
 |     Agreement between the United Kingdom        |
 |     Car-Parrinello (UKCP) Consortium,           |
 |     Daresbury Laboratory and Accelrys, Inc.     |
 |                                                 |
 | Please cite                                     |
 |                                                 |
 |     "First principles methods using CASTEP"     |
 |                                                 |
 |         Zeitschrift fuer Kristallographie       |
 |           220(5-6) pp. 567-570 (2005)           |
 |                                                 |
 | S. J. Clark, M. D. Segall, C. J. Pickard,       |
 | P. J. Hasnip, M. J. Probert, K. Refson,         |
 | M. C. Payne                                     |
 |                                                 |
 |       in all publications arising from          |
 |              your use of CASTEP                 |
 |                                                 |
 +-------------------------------------------------+
 
 
 Compiled for linux_x86_64_ifort14 on Thu, 11 Sep 2014 17:57:41 +0100
 from code version 62be813b80a7+ Castep70_branch Thu, 24 Jul 2014 18:27:46 +0100
 Compiler: Intel Fortran 14.0.3.174; Optimisation: fast
 MATHLIBS: Intel MKL(11.1.3) (LAPACK version 3.4.1)
 FFT Lib : fftw3 version fftw-3.2.1
 
 Run started: Thu, 05 May 2016 14:13:40 +0100
 
 Atomic calculation performed for O: 1s2 2s2 2p4
 
 Converged in 60 iterations to an ae energy of -2027.926 eV
 
   ============================================================                
   | Pseudopotential Report - Date of generation  5-05-2016   |                
   ------------------------------------------------------------                
   | Element: O Ionic charge:  6.00 Level of theory: LDA      |                
   |                                                          |                
   |               Reference Electronic Structure             |                
   |         Orbital         Occupation         Energy        |                
   |            2s              2.000           -0.873        |                
   |            2p              4.000           -0.338        |                
   |                                                          |                
   |                 Pseudopotential Definition               |                
   |        Beta     l      e      Rc     scheme   norm       |                
   |          1      0   -0.873   1.300     qc      0         |                
   |          2      0    0.250   1.300     qc      0         |                
   |          3      1   -0.338   1.300     qc      0         |                
   |          4      1    0.250   1.300     qc      0         |                
   |         loc     2    0.000   1.004     pn      0         |                
   |                                                          |                
   | Augmentation charge Rinner = 0.701                       |                
   | Partial core correction Rc = 0.701                       |                
   ------------------------------------------------------------                
   | "2|1.0|1.3|0.7|13|16|18|20:21(qc=7)"                     |                
   ------------------------------------------------------------                
   |      Author: Chris J. Pickard, Cambridge University      |                
   ============================================================                
 
 Atomic calculation performed for Mg: 1s2 2s2 2p6 3s2
 
 Converged in 47 iterations to an ae energy of -5427.407 eV
 
   ============================================================                
   | Pseudopotential Report - Date of generation  5-05-2016   |                
   ------------------------------------------------------------                
   | Element: Mg Ionic charge:  8.00 Level of theory: LDA     |                
   |                                                          |                
   |               Reference Electronic Structure             |                
   |         Orbital         Occupation         Energy        |                
   |            2p              6.000           -1.717        |                
   |            3s              2.000           -0.176        |                
   |                                                          |                
   |                 Pseudopotential Definition               |                
   |        Beta     l      e      Rc     scheme   norm       |                
   |          1      0   -0.176   1.994     qc      1         |                
   |          2      1   -1.717   1.994     qc      0         |                
   |          3      1    0.000   1.994     qc      0         |                
   |          4      1    0.250   1.994     qc      0         |                
   |         loc     2    0.000   1.605     pn      0         |                
   |                                                          |                
   | Augmentation charge Rinner = 1.405                       |                
   | Partial core correction Rc = 1.405                       |                
   ------------------------------------------------------------                
   | "2|1.6|2|1.4|6|7|8|30NH:21U:31UU:32LGG(qc=4.5)"          |                
   ------------------------------------------------------------                
   |      Author: Chris J. Pickard, Cambridge University      |                
   ============================================================                
 
 Atomic calculation performed for Ca: 1s2 2s2 2p6 3s2 3p6 4s2
 
 Converged in 44 iterations to an ae energy of -18468.058 eV
 
   ============================================================                
   | Pseudopotential Report - Date of generation  5-05-2016   |                
   ------------------------------------------------------------                
   | Element: Ca Ionic charge: 10.00 Level of theory: LDA     |                
   |                                                          |                
   |               Reference Electronic Structure             |                
   |         Orbital         Occupation         Energy        |                
   |            3s              2.000           -1.721        |                
   |            3p              6.000           -1.028        |                
   |            4s              2.000           -0.142        |                
   |                                                          |                
   |                 Pseudopotential Definition               |                
   |        Beta     l      e      Rc     scheme   norm       |                
   |          1      0   -1.721   2.005     qc      0         |                
   |          2      0   -0.142   2.005     qc      0         |                
   |          3      1   -1.028   2.005     qc      0         |                
   |          4      1    0.250   2.005     qc      0         |                
   |          5      2    0.000   2.005     qc      0         |                
   |          6      2    1.000   2.005     qc      0         |                
   |         loc     3    0.000   1.601     pn      0         |                
   |                                                          |                
   | Augmentation charge Rinner = 1.401                       |                
   | Partial core correction Rc = 1.401                       |                
   ------------------------------------------------------------                
   | "3|1.6|2.0|1.4|7|9|10|30U:40U:31:32U=0U=1.0"             |                
   ------------------------------------------------------------                
   |      Author: Chris J. Pickard, Cambridge University      |                
   ============================================================                
 
 Pseudo atomic calculation performed for O 2s2 2p4
 
 Converged in 30 iterations to a total energy of -432.7785 eV
 
 
 Pseudo atomic calculation performed for Mg 2p6 3s2
 
 Converged in 23 iterations to a total energy of -1024.6894 eV
 
 
 Pseudo atomic calculation performed for Ca 3s2 3p6 4s2
 
 Converged in 24 iterations to a total energy of -1000.4646 eV
 
 Calculation parallelised over 60 processes.
 Data is distributed by G-vector(10-way) and k-point(6-way)

 ************************************ Title ************************************
 MgO

 ***************************** General Parameters ******************************
  
 output verbosity                               : normal  (1)
 write checkpoint data to                       : cube_064.check
 type of calculation                            : geometry optimization
 stress calculation                             : on
 density difference calculation                 : off
 electron localisation func (ELF) calculation   : off
 Hirshfeld analysis                             : off
 unlimited duration calculation
 timing information                             : on
 memory usage estimate                          : on
 write final potential to formatted file        : off
 write final density to formatted file          : off
 write BibTeX reference list                    : on
  
 output         length unit                     : A
 output           mass unit                     : amu
 output           time unit                     : ps
 output         charge unit                     : e
 output         energy unit                     : eV
 output          force unit                     : eV/A
 output       velocity unit                     : A/ps
 output       pressure unit                     : GPa
 output     inv_length unit                     : 1/A
 output      frequency unit                     : cm-1
 output force constant unit                     : eV/A**2
 output         volume unit                     : A**3
 output   IR intensity unit                     : (D/A)**2/amu
 output         dipole unit                     : D
 output         efield unit                     : eV/A/e
 output        entropy unit                     : J/mol/K
  
 wavefunctions paging                           : none
 random number generator seed                   : randomised (141341121)
 data distribution                              : optimal for this architecture
 optimization strategy                          : maximize speed(+++)

 *********************** Exchange-Correlation Parameters ***********************
  
 using functional                               : Local Density Approximation
 Divergence correction                          : off
 DFT+D: Semi-empirical dispersion correction    : off

 ************************* Pseudopotential Parameters **************************
  
 pseudopotential representation                 : reciprocal space
 <beta|phi> representation                      : reciprocal space

 **************************** Basis Set Parameters *****************************
  
 plane wave basis set cut-off                   :   490.0000   eV
 size of standard grid                          :     2.0000
 size of   fine   gmax                          :    22.6812   1/A
 largest prime factor in FFT                    :          5
 finite basis set correction                    : automatic
 number of sample energies                      :          3
           sample  spacing                      :     5.0000   eV

 **************************** Electronic Parameters ****************************
  
 number of  electrons                           :  208.0    
 net charge of system                           :  0.000    
 net spin   of system                           :  0.000    
 number of  up  spins                           :  104.0    
 number of down spins                           :  104.0    
 treating system as non-spin-polarized
 number of bands                                :        125

 ********************* Electronic Minimization Parameters **********************
  
 Method: Treating system as metallic with density mixing treatment of electrons,
         and number of  SD  steps               :          1
         and number of  CG  steps               :          4
  
 total energy / atom convergence tol.           : 0.1000E-06   eV
 eigen-energy convergence tolerance             : 0.2596E-07   eV
 max force / atom convergence tol.              : ignored
 convergence tolerance window                   :          3   cycles
 max. number of SCF cycles                      :         60
 number of fixed-spin iterations                :         10
 smearing scheme                                : Gaussian
 smearing width                                 : 0.2000       eV
 Fermi energy convergence tolerance             : 0.2721E-13   eV
 periodic dipole correction                     : NONE

 ************************** Density Mixing Parameters **************************
  
 density-mixing scheme                          : Pulay
 max. length of mixing history                  :         30
 charge density mixing amplitude                : 0.8000    
 cut-off energy for mixing                      :  490.0       eV
 charge density mixing g-vector                 :  1.500       1/A

 *********************** Population Analysis Parameters ************************
  
 Population analysis with cutoff                :  3.000       A

 ********************** Geometry Optimization Parameters ***********************
  
 optimization method                            : BFGS
 variable cell method                           : fixed basis quality
 max. number of steps                           :         30
 estimated bulk modulus                         :  500.0       GPa
 estimated <frequency>                          :  1668.       cm-1
 geom line minimiser                            : on
 with line minimiser tolerance                  :     0.4000
 total energy convergence tolerance             : 0.2000E-04   eV/atom
        max ionic |force| tolerance             : 0.5000E-01   eV/A
 max ionic |displacement| tolerance             : 0.1000E-02   A
   max |stress component| tolerance             : 0.1000       GPa
 convergence tolerance window                   :          2   steps
 backup results every                           :          5   steps

 *******************************************************************************
  
 
                           -------------------------------
                                      Unit Cell
                           -------------------------------
        Real Lattice(A)                      Reciprocal Lattice(1/A)
   6.3000000   0.0000000   0.0000000        0.9973310   0.0000000   0.0000000
   0.0000000   6.3000000   0.0000000        0.0000000   0.9973310   0.0000000
   0.0000000   0.0000000   6.3000000        0.0000000   0.0000000   0.9973310
 
                       Lattice parameters(A)       Cell Angles
                    a =    6.300000          alpha =   90.000000
                    b =    6.300000          beta  =   90.000000
                    c =    6.300000          gamma =   90.000000
 
                       Current cell volume =  250.047000       A**3
 
                           -------------------------------
                                     Cell Contents
                           -------------------------------
                         Total number of ions in cell =   27
                      Total number of species in cell =    3
                        Max number of any one species =   13
 
            xxxxxxxxxxxxxxxxxxxxxxxxxxxxxxxxxxxxxxxxxxxxxxxxxxxxxxxxxxxx
            x  Element    Atom        Fractional coordinates of atoms  x
            x            Number           u          v          w      x
            x----------------------------------------------------------x
            x  O            1         0.000000   0.000000   0.333333   x 
            x  O            2         0.000000   0.333333   0.000000   x 
            x  O            3         0.000000   0.333333   0.666667   x 
            x  O            4         0.000000   0.666667   0.333333   x 
            x  O            5         0.333333   0.000000   0.000000   x 
            x  O            6         0.333333   0.000000   0.666667   x 
            x  O            7         0.333333   0.333333   0.333333   x 
            x  O            8         0.333333   0.666667   0.000000   x 
            x  O            9         0.333333   0.666667   0.666667   x 
            x  O           10         0.666667   0.000000   0.333333   x 
            x  O           11         0.666667   0.333333   0.000000   x 
            x  O           12         0.666667   0.333333   0.666667   x 
            x  O           13         0.666667   0.666667   0.333333   x 
            x  Mg           1         0.666667   0.000000   0.000000   x 
            x  Mg           2         0.666667   0.000000   0.666667   x 
            x  Mg           3         0.666667   0.333333   0.333333   x 
            x  Mg           4         0.666667   0.666667   0.000000   x 
            x  Mg           5         0.666667   0.666667   0.666667   x 
            x  Ca           1         0.000000   0.000000   0.000000   x 
            x  Ca           2         0.000000   0.000000   0.666667   x 
            x  Ca           3         0.000000   0.333333   0.333333   x 
            x  Ca           4         0.000000   0.666667   0.000000   x 
            x  Ca           5         0.000000   0.666667   0.666667   x 
            x  Ca           6         0.333333   0.000000   0.333333   x 
            x  Ca           7         0.333333   0.333333   0.000000   x 
            x  Ca           8         0.333333   0.333333   0.666667   x 
            x  Ca           9         0.333333   0.666667   0.333333   x 
            xxxxxxxxxxxxxxxxxxxxxxxxxxxxxxxxxxxxxxxxxxxxxxxxxxxxxxxxxxxx
 
 
                         No user defined ionic velocities
 
                           -------------------------------
                                   Details of Species
                           -------------------------------
 
                               Mass of species in AMU
                                    O   15.9994000
                                    Mg   24.3050000
                                    Ca   40.0780000
 
                          Electric Quadrupole Moment (Barn)
                                    O   -0.0255800 Isotope 17
                                    Mg    0.1994000 Isotope 25
                                    Ca   -0.0408000 Isotope 43
 
                          Files used for pseudopotentials:
                                    O Pseudopotential generated on-the-fly
                                    Mg Pseudopotential generated on-the-fly
                                    Ca Pseudopotential generated on-the-fly
 
                           -------------------------------
                              k-Points For BZ Sampling
                           -------------------------------
                       MP grid size for SCF calculation is  3  3  3
                         Number of kpoints used =           6
 
             +++++++++++++++++++++++++++++++++++++++++++++++++++++++
             +  Number       Fractional coordinates        Weight  +
             +-----------------------------------------------------+
             +     1  -0.333333   0.000000  -0.333333   0.2962963  +
             +     2  -0.333333   0.000000   0.000000   0.0740741  +
             +     3   0.000000   0.000000   0.000000   0.0370370  +
             +     4   0.000000   0.333333  -0.333333   0.1481481  +
             +     5   0.000000   0.333333   0.000000   0.1481481  +
             +     6   0.333333   0.333333  -0.333333   0.2962963  +
             +++++++++++++++++++++++++++++++++++++++++++++++++++++++
 
                           -------------------------------
                               Symmetry and Constraints
                           -------------------------------
 
                      Maximum deviation from symmetry =  0.00000         ANG
 
                      Number of symmetry operations   =           8
                      Number of ionic constraints     =           3
                      Point group of crystal =    12: C4v, 4mm, 4 mm
 
             Set iprint > 1 for details on symmetry rotations/translations
 
                         Centre of mass is constrained
             Set iprint > 1 for details of linear ionic constraints
 
                         Number of cell constraints= 5
                         Cell constraints are:  1 1 1 0 0 0
 
                         External pressure/stress (GPa)
                          0.00000   0.00000   0.00000
                                    0.00000   0.00000
                                              0.00000
  
+---------------- MEMORY AND SCRATCH DISK ESTIMATES PER PROCESS --------------+
|                                                     Memory          Disk    |
| Model and support data                               80.8 MB         0.0 MB |
| Electronic energy minimisation requirements           5.5 MB         0.0 MB |
|                                               ----------------------------- |
| Approx. total storage required per process           86.3 MB         0.0 MB |
|                                                                             |
| Requirements will fluctuate during execution and may exceed these estimates |
+-----------------------------------------------------------------------------+
Calculating finite basis set correction with  3 cut-off energies.
Calculating total energy with cut-off of  480.000eV.
------------------------------------------------------------------------ <-- SCF
SCF loop      Energy           Fermi           Energy gain       Timer   <-- SCF
                               energy          per atom          (sec)   <-- SCF
------------------------------------------------------------------------ <-- SCF
Initial  -1.74790283E+004  0.00000000E+000                        27.25  <-- SCF
      1  -1.92656030E+004  1.16392217E+001   6.61694323E+001      37.31  <-- SCF
      2  -1.98727921E+004  9.14726380E+000   2.24884842E+001      44.17  <-- SCF
      3  -1.98921140E+004  8.97255373E+000   7.15624624E-001      50.85  <-- SCF
      4  -1.99056099E+004  1.21255674E+001   4.99848354E-001      61.07  <-- SCF
      5  -1.98714183E+004  1.07425460E+001  -1.26635243E+000      71.61  <-- SCF
      6  -1.98688197E+004  1.06410181E+001  -9.62461119E-002      83.95  <-- SCF
      7  -1.98685268E+004  1.07393024E+001  -1.08494269E-002      94.33  <-- SCF
      8  -1.98679950E+004  1.07123265E+001  -1.96946039E-002     105.47  <-- SCF
      9  -1.98679275E+004  1.07638279E+001  -2.50115592E-003     116.95  <-- SCF
     10  -1.98679022E+004  1.07454262E+001  -9.35323168E-004     128.16  <-- SCF
     11  -1.98678989E+004  1.07384556E+001  -1.24010168E-004     139.12  <-- SCF
     12  -1.98678981E+004  1.07433378E+001  -2.74717262E-005     149.49  <-- SCF
     13  -1.98678981E+004  1.07427697E+001  -2.71541773E-006     158.62  <-- SCF
     14  -1.98678981E+004  1.07428711E+001  -3.83125557E-007     166.71  <-- SCF
     15  -1.98678981E+004  1.07429821E+001  -3.29282549E-008     174.11  <-- SCF
     16  -1.98678981E+004  1.07429166E+001  -9.47528037E-009     181.33  <-- SCF
------------------------------------------------------------------------ <-- SCF
 
Final energy, E             =  -19867.65180040     eV
Final free energy (E-TS)    =  -19867.89805235     eV
(energies not corrected for finite basis set)
 
NB est. 0K energy (E-0.5TS)      =  -19867.77492637     eV
 
Calculating total energy with cut-off of  485.000eV.
------------------------------------------------------------------------ <-- SCF
SCF loop      Energy           Fermi           Energy gain       Timer   <-- SCF
                               energy          per atom          (sec)   <-- SCF
------------------------------------------------------------------------ <-- SCF
Initial  -1.98676518E+004  0.00000000E+000                       185.13  <-- SCF
      1  -1.98680308E+004  1.07411481E+001   1.40352822E-002     193.28  <-- SCF
      2  -1.98680308E+004  1.07411481E+001   9.63109464E-007     201.72  <-- SCF
      3  -1.98680312E+004  1.07456472E+001   1.52551959E-005     211.43  <-- SCF
      4  -1.98680417E+004  1.07310369E+001   3.90105908E-004     221.70  <-- SCF
      5  -1.98680322E+004  1.07392767E+001  -3.53269872E-004     231.77  <-- SCF
      6  -1.98680309E+004  1.07437999E+001  -4.82103522E-005     241.70  <-- SCF
      7  -1.98680312E+004  1.07419958E+001   1.22776528E-005     251.36  <-- SCF
      8  -1.98680308E+004  1.07437143E+001  -1.71567539E-005     260.56  <-- SCF
      9  -1.98680307E+004  1.07423265E+001  -1.84435694E-007     269.66  <-- SCF
     10  -1.98680307E+004  1.07422542E+001  -1.45188180E-007     277.46  <-- SCF
     11  -1.98680307E+004  1.07426792E+001  -7.39986880E-008     284.75  <-- SCF
     12  -1.98680307E+004  1.07427124E+001   2.31399505E-009     291.78  <-- SCF
------------------------------------------------------------------------ <-- SCF
 
Final energy, E             =  -19867.78439840     eV
Final free energy (E-TS)    =  -19868.03074104     eV
(energies not corrected for finite basis set)
 
NB est. 0K energy (E-0.5TS)      =  -19867.90756972     eV
 
Calculating total energy with cut-off of  490.000eV.
------------------------------------------------------------------------ <-- SCF
SCF loop      Energy           Fermi           Energy gain       Timer   <-- SCF
                               energy          per atom          (sec)   <-- SCF
------------------------------------------------------------------------ <-- SCF
Initial  -1.98677844E+004  0.00000000E+000                       295.39  <-- SCF
      1  -1.98681991E+004  1.07409929E+001   1.53580298E-002     303.56  <-- SCF
      2  -1.98681991E+004  1.07409929E+001   1.01928938E-006     312.20  <-- SCF
      3  -1.98681997E+004  1.07470948E+001   2.14238510E-005     322.08  <-- SCF
      4  -1.98682079E+004  1.07288539E+001   3.05522618E-004     332.39  <-- SCF
      5  -1.98681997E+004  1.07424137E+001  -3.04982773E-004     342.63  <-- SCF
      6  -1.98681994E+004  1.07433347E+001  -8.73417832E-006     352.44  <-- SCF
      7  -1.98681995E+004  1.07423155E+001   2.29331942E-006     362.07  <-- SCF
      8  -1.98681990E+004  1.07440132E+001  -1.72167366E-005     371.31  <-- SCF
      9  -1.98681990E+004  1.07428005E+001  -4.12922081E-007     380.39  <-- SCF
     10  -1.98681990E+004  1.07425567E+001  -1.94575521E-007     388.28  <-- SCF
     11  -1.98681990E+004  1.07430113E+001  -6.19023465E-008     395.54  <-- SCF
     12  -1.98681990E+004  1.07430072E+001   1.22986843E-009     402.63  <-- SCF
------------------------------------------------------------------------ <-- SCF
 
Final energy, E             =  -19867.95254772     eV
Final free energy (E-TS)    =  -19868.19902857     eV
(energies not corrected for finite basis set)
 
NB est. 0K energy (E-0.5TS)      =  -19868.07578814     eV
 
 For future reference: finite basis dEtot/dlog(Ecut) =     -14.646060eV
 Total energy corrected for finite basis set =  -19868.199780 eV
 
+---------------- MEMORY AND SCRATCH DISK ESTIMATES PER PROCESS --------------+
|                                                     Memory          Disk    |
| Model and support data                               80.8 MB         0.0 MB |
| Electronic energy minimisation requirements           5.5 MB         0.0 MB |
| Geometry minimisation requirements                    7.0 MB         0.0 MB |
|                                               ----------------------------- |
| Approx. total storage required per process           93.3 MB         0.0 MB |
|                                                                             |
| Requirements will fluctuate during execution and may exceed these estimates |
+-----------------------------------------------------------------------------+
 
 
 *********************************** Forces ***********************************
 *                                                                            *
 *                        Cartesian components (eV/A)                         *
 * -------------------------------------------------------------------------- *
 *                   x                    y                    z              *
 *                                                                            *
 * O         1      2.21599              2.13655              0.00000         *
 * O         2      2.21599              0.00000              2.13655         *
 * O         3      2.21599              0.00000             -2.13655         *
 * O         4      2.21599             -2.13655              0.00000         *
 * O         5      0.88781              2.01379              2.01379         *
 * O         6      0.88781              2.01379             -2.01379         *
 * O         7      0.87342              0.00000              0.00000         *
 * O         8      0.88781             -2.01379              2.01379         *
 * O         9      0.88781             -2.01379             -2.01379         *
 * O        10     -1.06782              3.99567             -0.00000         *
 * O        11     -1.06782             -0.00000              3.99567         *
 * O        12     -1.06782             -0.00000             -3.99567         *
 * O        13     -1.06782             -3.99567              0.00000         *
 * Mg        1     -6.53441              6.36325              6.36325         *
 * Mg        2     -6.53441              6.36325             -6.36325         *
 * Mg        3     -4.64178              0.00000              0.00000         *
 * Mg        4     -6.53441             -6.36325              6.36325         *
 * Mg        5     -6.53441             -6.36325             -6.36325         *
 * Ca        1      4.61497              6.28131              6.28131         *
 * Ca        2      4.61497              6.28131             -6.28131         *
 * Ca        3      1.17053              0.00000              0.00000         *
 * Ca        4      4.61497             -6.28131              6.28131         *
 * Ca        5      4.61497             -6.28131             -6.28131         *
 * Ca        6      0.53291              4.63086              0.00000         *
 * Ca        7      0.53291              0.00000              4.63086         *
 * Ca        8      0.53291             -0.00000             -4.63086         *
 * Ca        9      0.53291             -4.63086              0.00000         *
 *                                                                            *
 ******************************************************************************
 
 ***************** Stress Tensor *****************
 *                                               *
 *          Cartesian components (GPa)           *
 * --------------------------------------------- *
 *             x             y             z     *
 *                                               *
 *  x    -67.763524      0.000000      0.000000  *
 *  y      0.000000    -75.762610      0.000000  *
 *  z      0.000000      0.000000    -75.762610  *
 *                                               *
 *  Pressure:   73.0962                          *
 *                                               *
 *************************************************
 
 *********** Constrained Stress Tensor ***********
 *                                               *
 *          Cartesian components (GPa)           *
 * --------------------------------------------- *
 *             x             y             z     *
 *                                               *
 *  x    -66.438672      0.000000      0.000000  *
 *  y      0.000000    -66.438672      0.000000  *
 *  z      0.000000      0.000000    -66.438672  *
 *                                               *
 *  Pressure:   66.4387                          *
 *                                               *
 *************************************************
 BFGS: finished iteration     0 with enthalpy= -1.98681998E+004 eV
  
 +-----------+-----------------+-----------------+------------+-----+ <-- BFGS
 | Parameter |      value      |    tolerance    |    units   | OK? | <-- BFGS
 +-----------+-----------------+-----------------+------------+-----+ <-- BFGS
 |  dE/ion   |   0.000000E+000 |   2.000000E-005 |         eV | No  | <-- BFGS
 |  |F|max   |   1.112117E+001 |   5.000000E-002 |       eV/A | No  | <-- BFGS
 |  |dR|max  |   0.000000E+000 |   1.000000E-003 |          A | No  | <-- BFGS
 |   Smax    |   7.306915E+001 |   1.000000E-001 |        GPa | No  | <-- BFGS
 +-----------+-----------------+-----------------+------------+-----+ <-- BFGS
  

================================================================================
 Starting BFGS iteration          1 ...
================================================================================
  
 +------------+-------------+-------------+-----------------+ <-- min BFGS
 |    Step    |   lambda    |   F.delta   |    enthalpy     | <-- min BFGS
 +------------+-------------+-------------+-----------------+ <-- min BFGS
 |  previous  |    0.000000 |    0.773778 |   -19868.199780 | <-- min BFGS
 +------------+-------------+-------------+-----------------+ <-- min BFGS
  

--------------------------------------------------------------------------------
 BFGS: starting iteration         1 with trial guess (lambda=  0.862160)
--------------------------------------------------------------------------------
 
+---------------- MEMORY AND SCRATCH DISK ESTIMATES PER PROCESS --------------+
|                                                     Memory          Disk    |
| Model and support data                               81.3 MB         0.0 MB |
| Electronic energy minimisation requirements           5.9 MB         0.0 MB |
| Geometry minimisation requirements                    7.6 MB         0.0 MB |
|                                               ----------------------------- |
| Approx. total storage required per process           94.8 MB         0.0 MB |
|                                                                             |
| Requirements will fluctuate during execution and may exceed these estimates |
+-----------------------------------------------------------------------------+
 
 
                           -------------------------------
                                      Unit Cell
                           -------------------------------
        Real Lattice(A)              Reciprocal Lattice(1/A)
   6.5645886   0.0000000   0.0000000        0.9571331   0.0000000   0.0000000
   0.0000000   6.5645886   0.0000000        0.0000000   0.9571331   0.0000000
   0.0000000   0.0000000   6.5645886        0.0000000   0.0000000   0.9571331
 
                       Lattice parameters(A)       Cell Angles
                    a =    6.564589          alpha =   90.000000
                    b =    6.564589          beta  =   90.000000
                    c =    6.564589          gamma =   90.000000
 
                Current cell volume =  282.893223 A**3
 
                           -------------------------------
                                     Cell Contents
                           -------------------------------
 
            xxxxxxxxxxxxxxxxxxxxxxxxxxxxxxxxxxxxxxxxxxxxxxxxxxxxxxxxxxxx
            x  Element    Atom        Fractional coordinates of atoms  x
            x            Number           u          v          w      x
            x----------------------------------------------------------x
            x  O            1         0.001160   0.001118   0.333333   x
            x  O            2         0.001160   0.333333   0.001118   x
            x  O            3         0.001160   0.333333   0.665549   x
            x  O            4         0.001160   0.665549   0.333333   x
            x  O            5         0.333798   0.001054   0.001054   x
            x  O            6         0.333798   0.001054   0.665613   x
            x  O            7         0.333790   0.333333   0.333333   x
            x  O            8         0.333798   0.665613   0.001054   x
            x  O            9         0.333798   0.665613   0.665613   x
            x  O           10         0.666108   0.002091   0.333333   x
            x  O           11         0.666108   0.333333   0.002091   x
            x  O           12         0.666108   0.333333   0.664576   x
            x  O           13         0.666108   0.664576   0.333333   x
            x  Mg           1         0.663247   0.003330   0.003330   x
            x  Mg           2         0.663247   0.003330   0.663337   x
            x  Mg           3         0.664237   0.333333   0.333333   x
            x  Mg           4         0.663247   0.663337   0.003330   x
            x  Mg           5         0.663247   0.663337   0.663337   x
            x  Ca           1         0.002415   0.003287   0.003287   x
            x  Ca           2         0.002415   0.003287   0.663379   x
            x  Ca           3         0.000613   0.333333   0.333333   x
            x  Ca           4         0.002415   0.663379   0.003287   x
            x  Ca           5         0.002415   0.663379   0.663379   x
            x  Ca           6         0.333612   0.002424   0.333333   x
            x  Ca           7         0.333612   0.333333   0.002424   x
            x  Ca           8         0.333612   0.333333   0.664243   x
            x  Ca           9         0.333612   0.664243   0.333333   x
            xxxxxxxxxxxxxxxxxxxxxxxxxxxxxxxxxxxxxxxxxxxxxxxxxxxxxxxxxxxx
 
 
------------------------------------------------------------------------ <-- SCF
SCF loop      Energy           Fermi           Energy gain       Timer   <-- SCF
                               energy          per atom          (sec)   <-- SCF
------------------------------------------------------------------------ <-- SCF
Initial  -1.98209206E+004  0.00000000E+000                       413.13  <-- SCF
      1  -1.99372772E+004  8.25290776E+000   4.30950183E+000     421.84  <-- SCF
      2  -1.99384659E+004  8.22132888E+000   4.40248020E-002     429.69  <-- SCF
      3  -1.99289087E+004  1.09296773E+001  -3.53968457E-001     440.38  <-- SCF
      4  -1.98916051E+004  8.84666153E+000  -1.38161449E+000     451.15  <-- SCF
      5  -1.98840378E+004  8.93109879E+000  -2.80270651E-001     461.90  <-- SCF
      6  -1.98827162E+004  8.89812220E+000  -4.89482151E-002     473.28  <-- SCF
      7  -1.98826340E+004  8.99403898E+000  -3.04584546E-003     484.15  <-- SCF
      8  -1.98825490E+004  8.99078839E+000  -3.14639952E-003     494.87  <-- SCF
      9  -1.98825250E+004  8.97013623E+000  -8.89381571E-004     505.60  <-- SCF
     10  -1.98825092E+004  8.97707848E+000  -5.85926807E-004     516.45  <-- SCF
     11  -1.98825081E+004  8.97936158E+000  -4.21500409E-005     527.55  <-- SCF
     12  -1.98825076E+004  8.97865380E+000  -1.81693843E-005     538.12  <-- SCF
     13  -1.98825076E+004  8.97811903E+000   4.28989658E-008     547.23  <-- SCF
     14  -1.98825076E+004  8.97821244E+000   6.20777637E-009     554.82  <-- SCF
------------------------------------------------------------------------ <-- SCF
 
Final energy, E             =  -19882.29251255     eV
Final free energy (E-TS)    =  -19882.50756379     eV
(energies not corrected for finite basis set)
 
NB est. 0K energy (E-0.5TS)      =  -19882.40003817     eV
 
 
 *********************************** Forces ***********************************
 *                                                                            *
 *                        Cartesian components (eV/A)                         *
 * -------------------------------------------------------------------------- *
 *                   x                    y                    z              *
 *                                                                            *
 * O         1      2.19423              2.06235              0.00000         *
 * O         2      2.19423              0.00000              2.06235         *
 * O         3      2.19423              0.00000             -2.06235         *
 * O         4      2.19423             -2.06235              0.00000         *
 * O         5      0.44237              1.97231              1.97231         *
 * O         6      0.44237              1.97231             -1.97231         *
 * O         7      0.49587              0.00000              0.00000         *
 * O         8      0.44237             -1.97231              1.97231         *
 * O         9      0.44237             -1.97231             -1.97231         *
 * O        10     -1.21915              3.25896             -0.00000         *
 * O        11     -1.21915              0.00000              3.25896         *
 * O        12     -1.21915             -0.00000             -3.25896         *
 * O        13     -1.21915             -3.25896              0.00000         *
 * Mg        1     -5.59836              5.01066              5.01066         *
 * Mg        2     -5.59836              5.01066             -5.01066         *
 * Mg        3     -4.14445              0.00000              0.00000         *
 * Mg        4     -5.59836             -5.01066              5.01066         *
 * Mg        5     -5.59836             -5.01066             -5.01066         *
 * Ca        1      4.22400              4.97158              4.97158         *
 * Ca        2      4.22400              4.97158             -4.97158         *
 * Ca        3      1.46957              0.00000              0.00000         *
 * Ca        4      4.22400             -4.97158              4.97158         *
 * Ca        5      4.22400             -4.97158             -4.97158         *
 * Ca        6      0.50165              3.39850              0.00000         *
 * Ca        7      0.50165              0.00000              3.39850         *
 * Ca        8      0.50165             -0.00000             -3.39850         *
 * Ca        9      0.50165             -3.39850              0.00000         *
 *                                                                            *
 ******************************************************************************
 
 ***************** Stress Tensor *****************
 *                                               *
 *          Cartesian components (GPa)           *
 * --------------------------------------------- *
 *             x             y             z     *
 *                                               *
 *  x    -35.390214      0.000000      0.000000  *
 *  y      0.000000    -36.924760      0.000000  *
 *  z      0.000000      0.000000    -36.924760  *
 *                                               *
 *  Pressure:   36.4132                          *
 *                                               *
 *************************************************
 
 *********** Constrained Stress Tensor ***********
 *                                               *
 *          Cartesian components (GPa)           *
 * --------------------------------------------- *
 *             x             y             z     *
 *                                               *
 *  x    -34.637822      0.000000      0.000000  *
 *  y      0.000000    -34.637822      0.000000  *
 *  z      0.000000      0.000000    -34.637822  *
 *                                               *
 *  Pressure:   34.6378                          *
 *                                               *
 *************************************************
  
 +------------+-------------+-------------+-----------------+ <-- min BFGS
 |    Step    |   lambda    |   F.delta   |    enthalpy     | <-- min BFGS
 +------------+-------------+-------------+-----------------+ <-- min BFGS
 |  previous  |    0.000000 |    0.773778 |   -19868.199780 | <-- min BFGS
 | trial step |    0.862160 |    0.469357 |   -19882.504527 | <-- min BFGS
 +------------+-------------+-------------+-----------------+ <-- min BFGS
  
 BFGS: finished iteration     1 with enthalpy= -1.98825045E+004 eV
  
 +-----------+-----------------+-----------------+------------+-----+ <-- BFGS
 | Parameter |      value      |    tolerance    |    units   | OK? | <-- BFGS
 +-----------+-----------------+-----------------+------------+-----+ <-- BFGS
 |  dE/ion   |   5.298054E-001 |   2.000000E-005 |         eV | No  | <-- BFGS
 |  |F|max   |   9.030778E+000 |   5.000000E-002 |       eV/A | No  | <-- BFGS
 |  |dR|max  |   3.820704E-002 |   1.000000E-003 |          A | No  | <-- BFGS
 |   Smax    |   3.641227E+001 |   1.000000E-001 |        GPa | No  | <-- BFGS
 +-----------+-----------------+-----------------+------------+-----+ <-- BFGS
  

================================================================================
 Starting BFGS iteration          2 ...
================================================================================
  
 +------------+-------------+-------------+-----------------+ <-- min BFGS
 |    Step    |   lambda    |   F.delta   |    enthalpy     | <-- min BFGS
 +------------+-------------+-------------+-----------------+ <-- min BFGS
 |  previous  |    0.000000 |    0.298112 |   -19882.504527 | <-- min BFGS
 +------------+-------------+-------------+-----------------+ <-- min BFGS
  

--------------------------------------------------------------------------------
 BFGS: starting iteration         2 with trial guess (lambda=  1.000000)
--------------------------------------------------------------------------------
 
+---------------- MEMORY AND SCRATCH DISK ESTIMATES PER PROCESS --------------+
|                                                     Memory          Disk    |
| Model and support data                               84.8 MB         0.0 MB |
| Electronic energy minimisation requirements           6.4 MB         0.0 MB |
| Geometry minimisation requirements                    8.2 MB         0.0 MB |
|                                               ----------------------------- |
| Approx. total storage required per process           99.5 MB         0.0 MB |
|                                                                             |
| Requirements will fluctuate during execution and may exceed these estimates |
+-----------------------------------------------------------------------------+
 
 
                           -------------------------------
                                      Unit Cell
                           -------------------------------
        Real Lattice(A)              Reciprocal Lattice(1/A)
   6.7306356   0.0000000   0.0000000        0.9335204   0.0000000   0.0000000
   0.0000000   6.7306356   0.0000000        0.0000000   0.9335204   0.0000000
   0.0000000   0.0000000   6.7306356        0.0000000   0.0000000   0.9335204
 
                       Lattice parameters(A)       Cell Angles
                    a =    6.730636          alpha =   90.000000
                    b =    6.730636          beta  =   90.000000
                    c =    6.730636          gamma =   90.000000
 
                Current cell volume =  304.907584 A**3
 
                           -------------------------------
                                     Cell Contents
                           -------------------------------
 
            xxxxxxxxxxxxxxxxxxxxxxxxxxxxxxxxxxxxxxxxxxxxxxxxxxxxxxxxxxxx
            x  Element    Atom        Fractional coordinates of atoms  x
            x            Number           u          v          w      x
            x----------------------------------------------------------x
            x  O            1         0.002548   0.002423   0.333333   x
            x  O            2         0.002548   0.333333   0.002423   x
            x  O            3         0.002548   0.333333   0.664244   x
            x  O            4         0.002548   0.664244   0.333333   x
            x  O            5         0.334078   0.002301   0.002301   x
            x  O            6         0.334078   0.002301   0.664365   x
            x  O            7         0.334104   0.333333   0.333333   x
            x  O            8         0.334078   0.664365   0.002301   x
            x  O            9         0.334078   0.664365   0.664365   x
            x  O           10         0.665337   0.004152   0.333333   x
            x  O           11         0.665337   0.333333   0.004152   x
            x  O           12         0.665337   0.333333   0.662514   x
            x  O           13         0.665337   0.662514   0.333333   x
            x  Mg           1         0.659706   0.006499   0.006499   x
            x  Mg           2         0.659706   0.006499   0.660167   x
            x  Mg           3         0.661616   0.333333   0.333333   x
            x  Mg           4         0.659706   0.660167   0.006499   x
            x  Mg           5         0.659706   0.660167   0.660167   x
            x  Ca           1         0.005087   0.006432   0.006432   x
            x  Ca           2         0.005087   0.006432   0.660235   x
            x  Ca           3         0.001542   0.333333   0.333333   x
            x  Ca           4         0.005087   0.660235   0.006432   x
            x  Ca           5         0.005087   0.660235   0.660235   x
            x  Ca           6         0.333930   0.004573   0.333333   x
            x  Ca           7         0.333930   0.333333   0.004573   x
            x  Ca           8         0.333930   0.333333   0.662094   x
            x  Ca           9         0.333930   0.662094   0.333333   x
            xxxxxxxxxxxxxxxxxxxxxxxxxxxxxxxxxxxxxxxxxxxxxxxxxxxxxxxxxxxx
 
 
------------------------------------------------------------------------ <-- SCF
SCF loop      Energy           Fermi           Energy gain       Timer   <-- SCF
                               energy          per atom          (sec)   <-- SCF
------------------------------------------------------------------------ <-- SCF
Initial  -1.98581279E+004  0.00000000E+000                       567.68  <-- SCF
      1  -1.99231584E+004  7.72119652E+000   2.40853812E+000     572.50  <-- SCF
      2  -1.99238263E+004  7.69405939E+000   2.47370380E-002     579.35  <-- SCF
      3  -1.99134083E+004  9.43451595E+000  -3.85852795E-001     585.51  <-- SCF
      4  -1.98965080E+004  7.90946446E+000  -6.25935733E-001     591.59  <-- SCF
      5  -1.98906966E+004  8.00437941E+000  -2.15236911E-001     597.69  <-- SCF
      6  -1.98895583E+004  7.96175620E+000  -4.21602340E-002     603.97  <-- SCF
      7  -1.98896356E+004  7.99458996E+000   2.86166469E-003     610.24  <-- SCF
      8  -1.98894071E+004  8.00679308E+000  -8.46129967E-003     616.24  <-- SCF
      9  -1.98893757E+004  8.00029362E+000  -1.16260833E-003     622.34  <-- SCF
     10  -1.98893702E+004  7.99449237E+000  -2.06436922E-004     628.37  <-- SCF
     11  -1.98893663E+004  7.99319817E+000  -1.41778197E-004     634.39  <-- SCF
     12  -1.98893663E+004  7.99396933E+000   3.04719210E-007     640.48  <-- SCF
     13  -1.98893663E+004  7.99377058E+000  -1.47186000E-006     645.63  <-- SCF
     14  -1.98893663E+004  7.99372722E+000  -1.16765318E-009     649.97  <-- SCF
     15  -1.98893663E+004  7.99368672E+000  -4.31244531E-009     654.24  <-- SCF
------------------------------------------------------------------------ <-- SCF
 
Final energy, E             =  -19889.11564483     eV
Final free energy (E-TS)    =  -19889.36629528     eV
(energies not corrected for finite basis set)
 
NB est. 0K energy (E-0.5TS)      =  -19889.24097005     eV
 
 
 *********************************** Forces ***********************************
 *                                                                            *
 *                        Cartesian components (eV/A)                         *
 * -------------------------------------------------------------------------- *
 *                   x                    y                    z              *
 *                                                                            *
 * O         1      2.15277              1.99509              0.00000         *
 * O         2      2.15277              0.00000              1.99509         *
 * O         3      2.15277             -0.00000             -1.99509         *
 * O         4      2.15277             -1.99509              0.00000         *
 * O         5      0.26426              1.91051              1.91051         *
 * O         6      0.26426              1.91051             -1.91051         *
 * O         7      0.34693              0.00000              0.00000         *
 * O         8      0.26426             -1.91051              1.91051         *
 * O         9      0.26426             -1.91051             -1.91051         *
 * O        10     -1.27467              2.87911             -0.00000         *
 * O        11     -1.27467             -0.00000              2.87911         *
 * O        12     -1.27467             -0.00000             -2.87911         *
 * O        13     -1.27467             -2.87911              0.00000         *
 * Mg        1     -4.89965              4.18488              4.18488         *
 * Mg        2     -4.89965              4.18488             -4.18488         *
 * Mg        3     -3.76457              0.00000              0.00000         *
 * Mg        4     -4.89965             -4.18488              4.18488         *
 * Mg        5     -4.89965             -4.18488             -4.18488         *
 * Ca        1      3.75736              4.28915              4.28915         *
 * Ca        2      3.75736              4.28915             -4.28915         *
 * Ca        3      1.46191              0.00000              0.00000         *
 * Ca        4      3.75736             -4.28915              4.28915         *
 * Ca        5      3.75736             -4.28915             -4.28915         *
 * Ca        6      0.48886              2.74429              0.00000         *
 * Ca        7      0.48886             -0.00000              2.74429         *
 * Ca        8      0.48886              0.00000             -2.74429         *
 * Ca        9      0.48886             -2.74429             -0.00000         *
 *                                                                            *
 ******************************************************************************
 
 ***************** Stress Tensor *****************
 *                                               *
 *          Cartesian components (GPa)           *
 * --------------------------------------------- *
 *             x             y             z     *
 *                                               *
 *  x    -21.259893      0.000000      0.000000  *
 *  y      0.000000    -20.721908      0.000000  *
 *  z      0.000000      0.000000    -20.721908  *
 *                                               *
 *  Pressure:   20.9012                          *
 *                                               *
 *************************************************
 
 *********** Constrained Stress Tensor ***********
 *                                               *
 *          Cartesian components (GPa)           *
 * --------------------------------------------- *
 *             x             y             z     *
 *                                               *
 *  x    -20.292450      0.000000      0.000000  *
 *  y      0.000000    -20.292450      0.000000  *
 *  z      0.000000      0.000000    -20.292450  *
 *                                               *
 *  Pressure:   20.2925                          *
 *                                               *
 *************************************************
  
 +------------+-------------+-------------+-----------------+ <-- min BFGS
 |    Step    |   lambda    |   F.delta   |    enthalpy     | <-- min BFGS
 +------------+-------------+-------------+-----------------+ <-- min BFGS
 |  previous  |    0.000000 |    0.298112 |   -19882.504527 | <-- min BFGS
 | trial step |    1.000000 |    0.214175 |   -19889.362808 | <-- min BFGS
 +------------+-------------+-------------+-----------------+ <-- min BFGS
  
 BFGS: finished iteration     2 with enthalpy= -1.98893628E+004 eV
  
 +-----------+-----------------+-----------------+------------+-----+ <-- BFGS
 | Parameter |      value      |    tolerance    |    units   | OK? | <-- BFGS
 +-----------+-----------------+-----------------+------------+-----+ <-- BFGS
 |  dE/ion   |   2.540104E-001 |   2.000000E-005 |         eV | No  | <-- BFGS
 |  |F|max   |   7.683298E+000 |   5.000000E-002 |       eV/A | No  | <-- BFGS
 |  |dR|max  |   3.844554E-002 |   1.000000E-003 |          A | No  | <-- BFGS
 |   Smax    |   2.090112E+001 |   1.000000E-001 |        GPa | No  | <-- BFGS
 +-----------+-----------------+-----------------+------------+-----+ <-- BFGS
  

================================================================================
 Starting BFGS iteration          3 ...
================================================================================
  
 +------------+-------------+-------------+-----------------+ <-- min BFGS
 |    Step    |   lambda    |   F.delta   |    enthalpy     | <-- min BFGS
 +------------+-------------+-------------+-----------------+ <-- min BFGS
 |  previous  |    0.000000 |    0.160062 |   -19889.362808 | <-- min BFGS
 +------------+-------------+-------------+-----------------+ <-- min BFGS
  

--------------------------------------------------------------------------------
 BFGS: starting iteration         3 with trial guess (lambda=  1.000000)
--------------------------------------------------------------------------------
 
+---------------- MEMORY AND SCRATCH DISK ESTIMATES PER PROCESS --------------+
|                                                     Memory          Disk    |
| Model and support data                               85.1 MB         0.0 MB |
| Electronic energy minimisation requirements           6.6 MB         0.0 MB |
| Geometry minimisation requirements                    8.4 MB         0.0 MB |
|                                               ----------------------------- |
| Approx. total storage required per process          100.1 MB         0.0 MB |
|                                                                             |
| Requirements will fluctuate during execution and may exceed these estimates |
+-----------------------------------------------------------------------------+
 
 
                           -------------------------------
                                      Unit Cell
                           -------------------------------
        Real Lattice(A)              Reciprocal Lattice(1/A)
   6.8308314   0.0000000   0.0000000        0.9198273   0.0000000   0.0000000
   0.0000000   6.8308314   0.0000000        0.0000000   0.9198273   0.0000000
   0.0000000   0.0000000   6.8308314        0.0000000   0.0000000   0.9198273
 
                       Lattice parameters(A)       Cell Angles
                    a =    6.830831          alpha =   90.000000
                    b =    6.830831          beta  =   90.000000
                    c =    6.830831          gamma =   90.000000
 
                Current cell volume =  318.728357 A**3
 
                           -------------------------------
                                     Cell Contents
                           -------------------------------
 
            xxxxxxxxxxxxxxxxxxxxxxxxxxxxxxxxxxxxxxxxxxxxxxxxxxxxxxxxxxxx
            x  Element    Atom        Fractional coordinates of atoms  x
            x            Number           u          v          w      x
            x----------------------------------------------------------x
            x  O            1         0.003944   0.003716   0.333333   x
            x  O            2         0.003944   0.333333   0.003716   x
            x  O            3         0.003944   0.333333   0.662950   x
            x  O            4         0.003944   0.662950   0.333333   x
            x  O            5         0.334249   0.003540   0.003540   x
            x  O            6         0.334249   0.003540   0.663126   x
            x  O            7         0.334329   0.333333   0.333333   x
            x  O            8         0.334249   0.663126   0.003540   x
            x  O            9         0.334249   0.663126   0.663126   x
            x  O           10         0.664510   0.006020   0.333333   x
            x  O           11         0.664510   0.333333   0.006020   x
            x  O           12         0.664510   0.333333   0.660647   x
            x  O           13         0.664510   0.660647   0.333333   x
            x  Mg           1         0.656528   0.009213   0.009213   x
            x  Mg           2         0.656528   0.009213   0.657453   x
            x  Mg           3         0.659175   0.333333   0.333333   x
            x  Mg           4         0.656528   0.657453   0.009213   x
            x  Mg           5         0.656528   0.657453   0.657453   x
            x  Ca           1         0.007524   0.009213   0.009213   x
            x  Ca           2         0.007524   0.009213   0.657453   x
            x  Ca           3         0.002490   0.333333   0.333333   x
            x  Ca           4         0.007524   0.657453   0.009213   x
            x  Ca           5         0.007524   0.657453   0.657453   x
            x  Ca           6         0.334247   0.006353   0.333333   x
            x  Ca           7         0.334247   0.333333   0.006353   x
            x  Ca           8         0.334247   0.333333   0.660314   x
            x  Ca           9         0.334247   0.660314   0.333333   x
            xxxxxxxxxxxxxxxxxxxxxxxxxxxxxxxxxxxxxxxxxxxxxxxxxxxxxxxxxxxx
 
 
------------------------------------------------------------------------ <-- SCF
SCF loop      Energy           Fermi           Energy gain       Timer   <-- SCF
                               energy          per atom          (sec)   <-- SCF
------------------------------------------------------------------------ <-- SCF
Initial  -1.98759923E+004  0.00000000E+000                       664.32  <-- SCF
      1  -1.99147644E+004  7.39089259E+000   1.43600369E+000     669.31  <-- SCF
      2  -1.99151606E+004  7.37483176E+000   1.46722815E-002     676.23  <-- SCF
      3  -1.99055730E+004  8.44445469E+000  -3.55094473E-001     682.66  <-- SCF
      4  -1.98986524E+004  7.36072244E+000  -2.56321247E-001     688.72  <-- SCF
      5  -1.98942456E+004  7.46598720E+000  -1.63212009E-001     694.75  <-- SCF
      6  -1.98934600E+004  7.44942149E+000  -2.90994474E-002     701.21  <-- SCF
      7  -1.98935425E+004  7.43562619E+000   3.05777586E-003     707.44  <-- SCF
      8  -1.98933391E+004  7.44725003E+000  -7.53487200E-003     713.51  <-- SCF
      9  -1.98932899E+004  7.45523214E+000  -1.81928740E-003     719.59  <-- SCF
     10  -1.98932903E+004  7.45032769E+000   1.46671886E-005     725.78  <-- SCF
     11  -1.98932883E+004  7.44820307E+000  -7.54015531E-005     731.69  <-- SCF
     12  -1.98932879E+004  7.44715317E+000  -1.53201539E-005     737.71  <-- SCF
     13  -1.98932879E+004  7.44743865E+000  -2.50919169E-007     742.86  <-- SCF
     14  -1.98932879E+004  7.44748558E+000  -2.73659819E-007     747.45  <-- SCF
     15  -1.98932879E+004  7.44744351E+000   2.73162784E-009     751.75  <-- SCF
     16  -1.98932879E+004  7.44743605E+000   6.04507718E-010     756.01  <-- SCF
------------------------------------------------------------------------ <-- SCF
 
Final energy, E             =  -19893.03471560     eV
Final free energy (E-TS)    =  -19893.28788146     eV
(energies not corrected for finite basis set)
 
NB est. 0K energy (E-0.5TS)      =  -19893.16129853     eV
 
 
 *********************************** Forces ***********************************
 *                                                                            *
 *                        Cartesian components (eV/A)                         *
 * -------------------------------------------------------------------------- *
 *                   x                    y                    z              *
 *                                                                            *
 * O         1      2.11674              1.95022              0.00000         *
 * O         2      2.11674              0.00000              1.95022         *
 * O         3      2.11674              0.00000             -1.95022         *
 * O         4      2.11674             -1.95022              0.00000         *
 * O         5      0.17474              1.85784              1.85784         *
 * O         6      0.17474              1.85784             -1.85784         *
 * O         7      0.28982              0.00000              0.00000         *
 * O         8      0.17474             -1.85784              1.85784         *
 * O         9      0.17474             -1.85784             -1.85784         *
 * O        10     -1.29121              2.66605              0.00000         *
 * O        11     -1.29121              0.00000              2.66605         *
 * O        12     -1.29121              0.00000             -2.66605         *
 * O        13     -1.29121             -2.66605              0.00000         *
 * Mg        1     -4.41973              3.68885              3.68885         *
 * Mg        2     -4.41973              3.68885             -3.68885         *
 * Mg        3     -3.46997              0.00000              0.00000         *
 * Mg        4     -4.41973             -3.68885              3.68885         *
 * Mg        5     -4.41973             -3.68885             -3.68885         *
 * Ca        1      3.38920              3.92001              3.92001         *
 * Ca        2      3.38920              3.92001             -3.92001         *
 * Ca        3      1.35656              0.00000              0.00000         *
 * Ca        4      3.38920             -3.92001              3.92001         *
 * Ca        5      3.38920             -3.92001             -3.92001         *
 * Ca        6      0.48616              2.34710              0.00000         *
 * Ca        7      0.48616              0.00000              2.34710         *
 * Ca        8      0.48616              0.00000             -2.34710         *
 * Ca        9      0.48616             -2.34710              0.00000         *
 *                                                                            *
 ******************************************************************************
 
 ***************** Stress Tensor *****************
 *                                               *
 *          Cartesian components (GPa)           *
 * --------------------------------------------- *
 *             x             y             z     *
 *                                               *
 *  x    -14.442795      0.000000      0.000000  *
 *  y      0.000000    -13.321373      0.000000  *
 *  z      0.000000      0.000000    -13.321373  *
 *                                               *
 *  Pressure:   13.6952                          *
 *                                               *
 *************************************************
 
 *********** Constrained Stress Tensor ***********
 *                                               *
 *          Cartesian components (GPa)           *
 * --------------------------------------------- *
 *             x             y             z     *
 *                                               *
 *  x    -13.427500      0.000000      0.000000  *
 *  y      0.000000    -13.427500      0.000000  *
 *  z      0.000000      0.000000    -13.427500  *
 *                                               *
 *  Pressure:   13.4275                          *
 *                                               *
 *************************************************
  
 +------------+-------------+-------------+-----------------+ <-- min BFGS
 |    Step    |   lambda    |   F.delta   |    enthalpy     | <-- min BFGS
 +------------+-------------+-------------+-----------------+ <-- min BFGS
 |  previous  |    0.000000 |    0.160062 |   -19889.362808 | <-- min BFGS
 | trial step |    1.000000 |    0.131490 |   -19893.291656 | <-- min BFGS
 +------------+-------------+-------------+-----------------+ <-- min BFGS
  
 BFGS: finished iteration     3 with enthalpy= -1.98932917E+004 eV
  
 +-----------+-----------------+-----------------+------------+-----+ <-- BFGS
 | Parameter |      value      |    tolerance    |    units   | OK? | <-- BFGS
 +-----------+-----------------+-----------------+------------+-----+ <-- BFGS
 |  dE/ion   |   1.455129E-001 |   2.000000E-005 |         eV | No  | <-- BFGS
 |  |F|max   |   6.837347E+000 |   5.000000E-002 |       eV/A | No  | <-- BFGS
 |  |dR|max  |   3.403569E-002 |   1.000000E-003 |          A | No  | <-- BFGS
 |   Smax    |   1.369465E+001 |   1.000000E-001 |        GPa | No  | <-- BFGS
 +-----------+-----------------+-----------------+------------+-----+ <-- BFGS
  

================================================================================
 Starting BFGS iteration          4 ...
================================================================================
  
 +------------+-------------+-------------+-----------------+ <-- min BFGS
 |    Step    |   lambda    |   F.delta   |    enthalpy     | <-- min BFGS
 +------------+-------------+-------------+-----------------+ <-- min BFGS
 |  previous  |    0.000000 |    0.110489 |   -19893.291656 | <-- min BFGS
 +------------+-------------+-------------+-----------------+ <-- min BFGS
  

--------------------------------------------------------------------------------
 BFGS: starting iteration         4 with trial guess (lambda=  1.000000)
--------------------------------------------------------------------------------
 
+---------------- MEMORY AND SCRATCH DISK ESTIMATES PER PROCESS --------------+
|                                                     Memory          Disk    |
| Model and support data                               85.3 MB         0.0 MB |
| Electronic energy minimisation requirements           6.8 MB         0.0 MB |
| Geometry minimisation requirements                    8.7 MB         0.0 MB |
|                                               ----------------------------- |
| Approx. total storage required per process          100.8 MB         0.0 MB |
|                                                                             |
| Requirements will fluctuate during execution and may exceed these estimates |
+-----------------------------------------------------------------------------+
 
 
                           -------------------------------
                                      Unit Cell
                           -------------------------------
        Real Lattice(A)              Reciprocal Lattice(1/A)
   6.8984501   0.0000000   0.0000000        0.9108112   0.0000000   0.0000000
   0.0000000   6.8984501   0.0000000        0.0000000   0.9108112   0.0000000
   0.0000000   0.0000000   6.8984501        0.0000000   0.0000000   0.9108112
 
                       Lattice parameters(A)       Cell Angles
                    a =    6.898450          alpha =   90.000000
                    b =    6.898450          beta  =   90.000000
                    c =    6.898450          gamma =   90.000000
 
                Current cell volume =  328.287672 A**3
 
                           -------------------------------
                                     Cell Contents
                           -------------------------------
 
            xxxxxxxxxxxxxxxxxxxxxxxxxxxxxxxxxxxxxxxxxxxxxxxxxxxxxxxxxxxx
            x  Element    Atom        Fractional coordinates of atoms  x
            x            Number           u          v          w      x
            x----------------------------------------------------------x
            x  O            1         0.005337   0.005000   0.333333   x
            x  O            2         0.005337   0.333333   0.005000   x
            x  O            3         0.005337   0.333333   0.661667   x
            x  O            4         0.005337   0.661667   0.333333   x
            x  O            5         0.334364   0.004763   0.004763   x
            x  O            6         0.334364   0.004763   0.661904   x
            x  O            7         0.334520   0.333333   0.333333   x
            x  O            8         0.334364   0.661904   0.004763   x
            x  O            9         0.334364   0.661904   0.661904   x
            x  O           10         0.663660   0.007774   0.333333   x
            x  O           11         0.663660   0.333333   0.007774   x
            x  O           12         0.663660   0.333333   0.658892   x
            x  O           13         0.663660   0.658892   0.333333   x
            x  Mg           1         0.653620   0.011641   0.011641   x
            x  Mg           2         0.653620   0.011641   0.655025   x
            x  Mg           3         0.656891   0.333333   0.333333   x
            x  Mg           4         0.653620   0.655025   0.011641   x
            x  Mg           5         0.653620   0.655025   0.655025   x
            x  Ca           1         0.009754   0.011793   0.011793   x
            x  Ca           2         0.009754   0.011793   0.654873   x
            x  Ca           3         0.003383   0.333333   0.333333   x
            x  Ca           4         0.009754   0.654873   0.011793   x
            x  Ca           5         0.009754   0.654873   0.654873   x
            x  Ca           6         0.334567   0.007898   0.333333   x
            x  Ca           7         0.334567   0.333333   0.007898   x
            x  Ca           8         0.334567   0.333333   0.658769   x
            x  Ca           9         0.334567   0.658769   0.333333   x
            xxxxxxxxxxxxxxxxxxxxxxxxxxxxxxxxxxxxxxxxxxxxxxxxxxxxxxxxxxxx
 
 
------------------------------------------------------------------------ <-- SCF
SCF loop      Energy           Fermi           Energy gain       Timer   <-- SCF
                               energy          per atom          (sec)   <-- SCF
------------------------------------------------------------------------ <-- SCF
Initial  -1.98836535E+004  0.00000000E+000                       766.09  <-- SCF
      1  -1.99124384E+004  7.24914271E+000   1.06610837E+000     771.11  <-- SCF
      2  -1.99127383E+004  7.23418532E+000   1.11089184E-002     778.09  <-- SCF
      3  -1.99031583E+004  7.79809717E+000  -3.54817582E-001     784.38  <-- SCF
      4  -1.99006776E+004  6.96103106E+000  -9.18758117E-002     790.47  <-- SCF
      5  -1.98969093E+004  7.10451786E+000  -1.39566609E-001     796.50  <-- SCF
      6  -1.98963074E+004  7.09952507E+000  -2.22947884E-002     802.96  <-- SCF
      7  -1.98962110E+004  7.09000910E+000  -3.56917595E-003     809.29  <-- SCF
      8  -1.98961323E+004  7.08843937E+000  -2.91392598E-003     815.35  <-- SCF
      9  -1.98960999E+004  7.09938720E+000  -1.19983042E-003     821.51  <-- SCF
     10  -1.98961002E+004  7.09779738E+000   8.37114244E-006     827.90  <-- SCF
     11  -1.98960994E+004  7.09556388E+000  -2.75240267E-005     833.82  <-- SCF
     12  -1.98960992E+004  7.09424298E+000  -7.78665429E-006     839.72  <-- SCF
     13  -1.98960992E+004  7.09440854E+000   2.96150347E-007     845.17  <-- SCF
     14  -1.98960992E+004  7.09460839E+000  -5.69506767E-007     849.96  <-- SCF
     15  -1.98960992E+004  7.09457850E+000   5.28440115E-009     854.31  <-- SCF
     16  -1.98960992E+004  7.09456514E+000  -1.01308894E-009     858.61  <-- SCF
------------------------------------------------------------------------ <-- SCF
 
Final energy, E             =  -19895.86411456     eV
Final free energy (E-TS)    =  -19896.09919461     eV
(energies not corrected for finite basis set)
 
NB est. 0K energy (E-0.5TS)      =  -19895.98165458     eV
 
 
 *********************************** Forces ***********************************
 *                                                                            *
 *                        Cartesian components (eV/A)                         *
 * -------------------------------------------------------------------------- *
 *                   x                    y                    z              *
 *                                                                            *
 * O         1      2.08028              1.90257              0.00000         *
 * O         2      2.08028              0.00000              1.90257         *
 * O         3      2.08028             -0.00000             -1.90257         *
 * O         4      2.08028             -1.90257             -0.00000         *
 * O         5      0.13470              1.80620              1.80620         *
 * O         6      0.13470              1.80620             -1.80620         *
 * O         7      0.26730              0.00000              0.00000         *
 * O         8      0.13470             -1.80620              1.80620         *
 * O         9      0.13470             -1.80620             -1.80620         *
 * O        10     -1.28850              2.51847              0.00000         *
 * O        11     -1.28850             -0.00000              2.51847         *
 * O        12     -1.28850              0.00000             -2.51847         *
 * O        13     -1.28850             -2.51847             -0.00000         *
 * Mg        1     -4.05348              3.34835              3.34835         *
 * Mg        2     -4.05348              3.34835             -3.34835         *
 * Mg        3     -3.22288              0.00000              0.00000         *
 * Mg        4     -4.05348             -3.34835              3.34835         *
 * Mg        5     -4.05348             -3.34835             -3.34835         *
 * Ca        1      3.07937              3.63251              3.63251         *
 * Ca        2      3.07937              3.63251             -3.63251         *
[...]
 *                   x                    y                    z              *
 *                                                                            *
 * O         1      0.94503              0.71916              0.00000         *
 * O         2      0.94503              0.00000              0.71916         *
 * O         3      0.94503              0.00000             -0.71916         *
 * O         4      0.94503             -0.71916              0.00000         *
 * O         5      0.25375              0.76398              0.76398         *
 * O         6      0.25375              0.76398             -0.76398         *
 * O         7      0.10249              0.00000              0.00000         *
 * O         8      0.25375             -0.76398              0.76398         *
 * O         9      0.25375             -0.76398             -0.76398         *
 * O        10     -0.60511              1.19563              0.00000         *
 * O        11     -0.60511              0.00000              1.19563         *
 * O        12     -0.60511              0.00000             -1.19563         *
 * O        13     -0.60511             -1.19563              0.00000         *
 * Mg        1     -1.00091              1.14546              1.14546         *
 * Mg        2     -1.00091              1.14546             -1.14546         *
 * Mg        3     -0.96744              0.00000              0.00000         *
 * Mg        4     -1.00091             -1.14546              1.14546         *
 * Mg        5     -1.00091             -1.14546             -1.14546         *
 * Ca        1      0.59391              0.61406              0.61406         *
 * Ca        2      0.59391              0.61406             -0.61406         *
 * Ca        3      0.02050              0.00000              0.00000         *
 * Ca        4      0.59391             -0.61406              0.61406         *
 * Ca        5      0.59391             -0.61406             -0.61406         *
 * Ca        6      0.02444              0.37156              0.00000         *
 * Ca        7      0.02444             -0.00000              0.37156         *
 * Ca        8      0.02444              0.00000             -0.37156         *
 * Ca        9      0.02444             -0.37156             -0.00000         *
 *                                                                            *
 ******************************************************************************
 
 ***************** Stress Tensor *****************
 *                                               *
 *          Cartesian components (GPa)           *
 * --------------------------------------------- *
 *             x             y             z     *
 *                                               *
 *  x     -2.577510      0.000000      0.000000  *
 *  y      0.000000     -1.264258      0.000000  *
 *  z      0.000000      0.000000     -1.264258  *
 *                                               *
 *  Pressure:    1.7020                          *
 *                                               *
 *************************************************
 
 *********** Constrained Stress Tensor ***********
 *                                               *
 *          Cartesian components (GPa)           *
 * --------------------------------------------- *
 *             x             y             z     *
 *                                               *
 *  x     -1.696794      0.000000      0.000000  *
 *  y      0.000000     -1.696794      0.000000  *
 *  z      0.000000      0.000000     -1.696794  *
 *                                               *
 *  Pressure:    1.6968                          *
 *                                               *
 *************************************************
  
 +------------+-------------+-------------+-----------------+ <-- min BFGS
 |    Step    |   lambda    |   F.delta   |    enthalpy     | <-- min BFGS
 +------------+-------------+-------------+-----------------+ <-- min BFGS
 |  previous  |    0.000000 |    0.008277 |   -19914.905910 | <-- min BFGS
 | trial step |    1.000000 |    0.008029 |   -19915.125302 | <-- min BFGS
 +------------+-------------+-------------+-----------------+ <-- min BFGS
  
 BFGS: finished iteration    30 with enthalpy= -1.99151253E+004 eV
  
 +-----------+-----------------+-----------------+------------+-----+ <-- BFGS
 | Parameter |      value      |    tolerance    |    units   | OK? | <-- BFGS
 +-----------+-----------------+-----------------+------------+-----+ <-- BFGS
 |  dE/ion   |   8.125646E-003 |   2.000000E-005 |         eV | No  | <-- BFGS
 |  |F|max   |   1.904199E+000 |   5.000000E-002 |       eV/A | No  | <-- BFGS
 |  |dR|max  |   1.010240E-002 |   1.000000E-003 |          A | No  | <-- BFGS
 |   Smax    |   1.701253E+000 |   1.000000E-001 |        GPa | No  | <-- BFGS
 +-----------+-----------------+-----------------+------------+-----+ <-- BFGS
  
 BFGS : WARNING - Geometry optimization failed to converge after         30 steps

================================================================================
 BFGS : Final Configuration:
================================================================================
 
                           -------------------------------
                                      Unit Cell
                           -------------------------------
        Real Lattice(A)              Reciprocal Lattice(1/A)
   7.2941834   0.0000000   0.0000000        0.8613967   0.0000000   0.0000000
   0.0000000   7.2941834   0.0000000        0.0000000   0.8613967   0.0000000
   0.0000000   0.0000000   7.2941834        0.0000000   0.0000000   0.8613967
 
                       Lattice parameters(A)       Cell Angles
                    a =    7.294183          alpha =   90.000000
                    b =    7.294183          beta  =   90.000000
                    c =    7.294183          gamma =   90.000000
 
                Current cell volume =  388.087836 A**3
 
                           -------------------------------
                                     Cell Contents
                           -------------------------------
 
            xxxxxxxxxxxxxxxxxxxxxxxxxxxxxxxxxxxxxxxxxxxxxxxxxxxxxxxxxxxx
            x  Element    Atom        Fractional coordinates of atoms  x
            x            Number           u          v          w      x
            x----------------------------------------------------------x
            x  O            1         0.031744   0.026722   0.333333   x
            x  O            2         0.031744   0.333333   0.026722   x
            x  O            3         0.031744   0.333333   0.639944   x
            x  O            4         0.031744   0.639944   0.333333   x
            x  O            5         0.339980   0.026557   0.026557   x
            x  O            6         0.339980   0.026557   0.640109   x
            x  O            7         0.338753   0.333333   0.333333   x
            x  O            8         0.339980   0.640109   0.026557   x
            x  O            9         0.339980   0.640109   0.640109   x
            x  O           10         0.647542   0.038693   0.333333   x
            x  O           11         0.647542   0.333333   0.038693   x
            x  O           12         0.647542   0.333333   0.627974   x
            x  O           13         0.647542   0.627974   0.333333   x
            x  Mg           1         0.614191   0.046167   0.046167   x
            x  Mg           2         0.614191   0.046167   0.620500   x
            x  Mg           3         0.625046   0.333333   0.333333   x
            x  Mg           4         0.614191   0.620500   0.046167   x
            x  Mg           5         0.614191   0.620500   0.620500   x
            x  Ca           1         0.034512   0.040909   0.040909   x
            x  Ca           2         0.034512   0.040909   0.625757   x
            x  Ca           3         0.010287   0.333333   0.333333   x
            x  Ca           4         0.034512   0.625757   0.040909   x
            x  Ca           5         0.034512   0.625757   0.625757   x
            x  Ca           6         0.338509   0.022620   0.333333   x
            x  Ca           7         0.338509   0.333333   0.022620   x
            x  Ca           8         0.338509   0.333333   0.644047   x
            x  Ca           9         0.338509   0.644047   0.333333   x
            xxxxxxxxxxxxxxxxxxxxxxxxxxxxxxxxxxxxxxxxxxxxxxxxxxxxxxxxxxxx
 
 
 BFGS : Final Enthalpy     = -1.99151253E+004 eV
 BFGS : Final <frequency>  unchanged from initial value
 BFGS : Final bulk modulus unchanged from initial value
  
  **********************************************************
  *** There were at least     2 warnings during this run ***
  *** => please check the whole of this file carefully!  ***
  **********************************************************
 
 ***************************** Symmetrised Forces *****************************
 *                                                                            *
 *                        Cartesian components (eV/A)                         *
 * -------------------------------------------------------------------------- *
 *                   x                    y                    z              *
 *                                                                            *
 * O         1      0.94503              0.71916              0.00000         *
 * O         2      0.94503              0.00000              0.71916         *
 * O         3      0.94503              0.00000             -0.71916         *
 * O         4      0.94503             -0.71916              0.00000         *
 * O         5      0.25375              0.76398              0.76398         *
 * O         6      0.25375              0.76398             -0.76398         *
 * O         7      0.10249              0.00000              0.00000         *
 * O         8      0.25375             -0.76398              0.76398         *
 * O         9      0.25375             -0.76398             -0.76398         *
 * O        10     -0.60511              1.19563              0.00000         *
 * O        11     -0.60511              0.00000              1.19563         *
 * O        12     -0.60511              0.00000             -1.19563         *
 * O        13     -0.60511             -1.19563              0.00000         *
 * Mg        1     -1.00091              1.14546              1.14546         *
 * Mg        2     -1.00091              1.14546             -1.14546         *
 * Mg        3     -0.96744              0.00000              0.00000         *
 * Mg        4     -1.00091             -1.14546              1.14546         *
 * Mg        5     -1.00091             -1.14546             -1.14546         *
 * Ca        1      0.59391              0.61406              0.61406         *
 * Ca        2      0.59391              0.61406             -0.61406         *
 * Ca        3      0.02050              0.00000              0.00000         *
 * Ca        4      0.59391             -0.61406              0.61406         *
 * Ca        5      0.59391             -0.61406             -0.61406         *
 * Ca        6      0.02444              0.37156              0.00000         *
 * Ca        7      0.02444             -0.00000              0.37156         *
 * Ca        8      0.02444              0.00000             -0.37156         *
 * Ca        9      0.02444             -0.37156             -0.00000         *
 *                                                                            *
 ******************************************************************************
 
 *********** Symmetrised Stress Tensor ***********
 *                                               *
 *          Cartesian components (GPa)           *
 * --------------------------------------------- *
 *             x             y             z     *
 *                                               *
 *  x     -1.701253      0.000000      0.000000  *
 *  y      0.000000     -1.701253      0.000000  *
 *  z      0.000000      0.000000     -1.701253  *
 *                                               *
 *  Pressure:    1.7013                          *
 *                                               *
 *************************************************
 
 Pseudo atomic calculation performed for O 2s2 2p4
 
 Converged in 30 iterations to a total energy of -432.7785 eV
 
 
 Pseudo atomic calculation performed for Mg 2p6 3s2
 
 Converged in 23 iterations to a total energy of -1024.6894 eV
 
 
 Pseudo atomic calculation performed for Ca 3s2 3p6 4s2
 
 Converged in 24 iterations to a total energy of -1000.4646 eV
 
Charge spilling parameter for spin component 1 = 0.30%
 
     Atomic Populations (Mulliken)
     -----------------------------
Species   Ion     s      p      d      f     Total  Charge (e)
==============================================================
  O        1     1.87   4.98   0.00   0.00   6.85    -0.85
  O        2     1.87   4.98   0.00   0.00   6.85    -0.85
  O        3     1.87   4.98   0.00   0.00   6.85    -0.85
  O        4     1.87   4.98   0.00   0.00   6.85    -0.85
  O        5     1.87   5.03   0.00   0.00   6.90    -0.90
  O        6     1.87   5.03   0.00   0.00   6.90    -0.90
  O        7     1.85   5.04   0.00   0.00   6.90    -0.90
  O        8     1.87   5.03   0.00   0.00   6.90    -0.90
  O        9     1.87   5.03   0.00   0.00   6.90    -0.90
  O       10     1.87   5.05   0.00   0.00   6.92    -0.92
  O       11     1.87   5.05   0.00   0.00   6.92    -0.92
  O       12     1.87   5.05   0.00   0.00   6.92    -0.92
  O       13     1.87   5.05   0.00   0.00   6.92    -0.92
  Mg       1     0.46   6.91   0.00   0.00   7.37     0.63
  Mg       2     0.46   6.91   0.00   0.00   7.37     0.63
  Mg       3     0.47   6.75   0.00   0.00   7.22     0.78
  Mg       4     0.46   6.91   0.00   0.00   7.37     0.63
  Mg       5     0.46   6.91   0.00   0.00   7.37     0.63
  Ca       1     2.24   5.97   0.90   0.00   9.11     0.89
  Ca       2     2.24   5.97   0.90   0.00   9.11     0.89
  Ca       3     2.15   5.98   0.82   0.00   8.96     1.04
  Ca       4     2.24   5.97   0.90   0.00   9.11     0.89
  Ca       5     2.24   5.97   0.90   0.00   9.11     0.89
  Ca       6     2.22   5.98   0.88   0.00   9.08     0.92
  Ca       7     2.22   5.98   0.88   0.00   9.08     0.92
  Ca       8     2.22   5.98   0.88   0.00   9.08     0.92
  Ca       9     2.22   5.98   0.88   0.00   9.08     0.92
==============================================================
 
            Bond              Population      Length (A)
============================================================
         O 8  -- Mg 4              0.47        2.01035
         O 6  -- Mg 2              0.47        2.01035
         O 5  -- Mg 1              0.47        2.01035
         O 9  -- Mg 5              0.47        2.01035
         O 7  -- Mg 3              0.24        2.08827
         O 11 -- Mg 4              0.41        2.10943
         O 13 -- Mg 5              0.41        2.10943
         O 12 -- Mg 5              0.41        2.10943
         O 10 -- Mg 2              0.41        2.10943
         O 11 -- Mg 1              0.41        2.10943
         O 13 -- Mg 4              0.41        2.10943
         O 12 -- Mg 2              0.41        2.10943
         O 10 -- Mg 1              0.41        2.10943
         O 4  -- Ca 5              0.28        2.13560
         O 3  -- Ca 5              0.28        2.13560
         O 2  -- Ca 4              0.28        2.13560
         O 1  -- Ca 2              0.28        2.13560
         O 4  -- Ca 4              0.28        2.13560
         O 3  -- Ca 2              0.28        2.13560
         O 2  -- Ca 1              0.28        2.13560
         O 1  -- Ca 1              0.28        2.13560
         O 13 -- Mg 3              0.27        2.15542
         O 12 -- Mg 3              0.27        2.15542
         O 11 -- Mg 3              0.27        2.15542
         O 10 -- Mg 3              0.27        2.15542
         O 9  -- Ca 5              0.29        2.23305
         O 8  -- Ca 4              0.29        2.23305
         O 6  -- Ca 2              0.29        2.23305
         O 5  -- Ca 1              0.29        2.23305
         O 4  -- Ca 9              0.18        2.23780
         O 3  -- Ca 8              0.18        2.23780
         O 2  -- Ca 7              0.18        2.23780
         O 1  -- Ca 6              0.18        2.23780
         O 9  -- Ca 8              0.15        2.23789
         O 8  -- Ca 7              0.15        2.23789
         O 6  -- Ca 8              0.15        2.23789
         O 5  -- Ca 7              0.15        2.23789
         O 9  -- Ca 9              0.15        2.23789
         O 8  -- Ca 9              0.15        2.23789
         O 6  -- Ca 6              0.15        2.23789
         O 5  -- Ca 6              0.15        2.23789
         O 4  -- Ca 3              0.15        2.24195
         O 3  -- Ca 3              0.15        2.24195
         O 2  -- Ca 3              0.15        2.24195
         O 1  -- Ca 3              0.15        2.24195
         O 13 -- Ca 9              0.09        2.25719
         O 12 -- Ca 8              0.09        2.25719
         O 11 -- Ca 7              0.09        2.25719
         O 10 -- Ca 6              0.09        2.25719
         O 7  -- Ca 9              0.16        2.26640
         O 7  -- Ca 8              0.16        2.26640
         O 7  -- Ca 7              0.16        2.26640
         O 7  -- Ca 6              0.16        2.26640
         O 7  -- Ca 3              0.18        2.39589
         Ca 7 -- Ca 8             -0.12        2.76139
         Ca 6 -- Ca 9             -0.12        2.76139
         O 4  -- O 13             -0.05        2.80380
         O 3  -- O 12             -0.05        2.80380
         O 2  -- O 11             -0.05        2.80380
         O 1  -- O 10             -0.05        2.80380
         Mg 3 -- Ca 3             -0.24        2.81002
         O 8  -- O 9              -0.05        2.81882
         O 6  -- O 9              -0.05        2.81882
         O 5  -- O 8              -0.05        2.81882
         O 5  -- O 6              -0.05        2.81882
         O 2  -- O 3              -0.05        2.82123
         O 1  -- O 4              -0.05        2.82123
         Mg 5 -- Ca 9             -0.14        2.90872
         Mg 5 -- Ca 8             -0.14        2.90872
         Mg 4 -- Ca 7             -0.14        2.90872
         Mg 2 -- Ca 6             -0.14        2.90872
         Mg 4 -- Ca 9             -0.14        2.90872
         Mg 2 -- Ca 8             -0.14        2.90872
         Mg 1 -- Ca 7             -0.14        2.90872
         Mg 1 -- Ca 6             -0.14        2.90872
         Mg 3 -- Mg 5             -0.37        2.96333
         Mg 3 -- Mg 4             -0.37        2.96333
         Mg 2 -- Mg 3             -0.37        2.96333
         Mg 1 -- Mg 3             -0.37        2.96333
         O 11 -- O 12             -0.03        2.99586
         O 10 -- O 13             -0.03        2.99586
============================================================
 

Writing analysis data to cube_064.castep_bin

Writing model to cube_064.check
 
 A BibTeX formatted list of references used in this run has been written to 
 cube_064.bib
 
Initialisation time =     15.95 s
Calculation time    =   5817.07 s
Finalisation time   =      2.27 s
Total time          =   5835.29 s
Peak Memory Use     = 516560 kB
  
Overall parallel efficiency rating: Terrible (8%)                               
  
Data was distributed by:-
G-vector (10-way); efficiency rating: Poor (38%)                                
k-point (6-way); efficiency rating: Terrible (10%)                              
