 +-------------------------------------------------+
 |                                                 |
 |      CCC   AA    SSS  TTTTT  EEEEE  PPPP        |
 |     C     A  A  S       T    E      P   P       |
 |     C     AAAA   SS     T    EEE    PPPP        |
 |     C     A  A     S    T    E      P           |
 |      CCC  A  A  SSS     T    EEEEE  P           |
 |                                                 |
 +-------------------------------------------------+
 |                                                 |
 | Welcome to Academic Release CASTEP version 9.0  |
 | Ab Initio Total Energy Program                  |
 |                                                 |
 | Authors:                                        |
 | M. Segall, M. Probert, C. Pickard, P. Hasnip,   |
 | S. Clark, K. Refson, J. R. Yates, M. Payne      |
 |                                                 |
 | Contributors:                                   |
 | P. Lindan, P. Haynes, J. White, V. Milman,      |
 | N. Govind, M. Gibson, P. Tulip, V. Cocula,      |
 | B. Montanari, D. Quigley, M. Glover,            |
 | L. Bernasconi, A. Perlov, M. Plummer,           |
 | E. McNellis, J. Meyer, J. Gale, D. Jochym       |
 | J. Aarons, B. Walker, R. Gillen, D. Jones       |
 | T. Green, I. J. Bush, C. J. Armstrong,          |
 | E. J. Higgins, M. D. Hodgson                    |
 |                                                 |
 | Copyright (c) 2000 - 2015                       |
 |                                                 |
 |     Distributed under the terms of an           |
 |     Agreement between the United Kingdom        |
 |     Car-Parrinello (UKCP) Consortium,           |
 |     Daresbury Laboratory and Accelrys, Inc.     |
 |                                                 |
 | Please cite                                     |
 |                                                 |
 |     "First principles methods using CASTEP"     |
 |                                                 |
 |         Zeitschrift fuer Kristallographie       |
 |           220(5-6) pp. 567-570 (2005)           |
 |                                                 |
 | S. J. Clark, M. D. Segall, C. J. Pickard,       |
 | P. J. Hasnip, M. J. Probert, K. Refson,         |
 | M. C. Payne                                     |
 |                                                 |
 |       in all publications arising from          |
 |              your use of CASTEP                 |
 |                                                 |
 +-------------------------------------------------+
 
 
 Compiled for linux_x86_64_ifort14 on Fri, 02 Oct 2015 15:55:17 +0100
 from code version 71a83ec443eb+  Thu, 27 Aug 2015 20:54:52 +0100
 Compiler: Intel Fortran 14.0.0.080; Optimisation: fast
 MATHLIBS: Intel MKL(11.1.0) (LAPACK version 3.4.1)
 FFT Lib : default
 Fundamental constants values: CODATA 2010
 
 Run started: Fri, 06 May 2016 14:09:32 +0100
 
 Atomic calculation performed for O: 1s2 2s2 2p4
 
 Converged in 60 iterations to an ae energy of -2027.926 eV
 
   ============================================================                
   | Pseudopotential Report - Date of generation  6-05-2016   |                
   ------------------------------------------------------------                
   | Element: O Ionic charge:  6.00 Level of theory: LDA      |                
   | Atomic Solver: Koelling-Harmon                           |                
   |                                                          |                
   |               Reference Electronic Structure             |                
   |         Orbital         Occupation         Energy        |                
   |            2s              2.000           -0.873        |                
   |            2p              4.000           -0.338        |                
   |                                                          |                
   |                 Pseudopotential Definition               |                
   |        Beta     l      e      Rc     scheme   norm       |                
   |          1      0   -0.873   1.100     qc      0         |                
   |          2      0    0.250   1.100     qc      0         |                
   |          3      1   -0.338   1.100     qc      0         |                
   |          4      1    0.250   1.100     qc      0         |                
   |         loc     2    0.000   1.100     pn      0         |                
   |                                                          |                
   | Augmentation charge Rinner = 0.769                       |                
   | Partial core correction Rc = 0.769                       |                
   ------------------------------------------------------------                
   | "2|1.1|15|18|20|20:21(qc=7)"                             |                
   ------------------------------------------------------------                
   |      Author: Chris J. Pickard, Cambridge University      |                
   ============================================================                
 
 Atomic calculation performed for Mg: 1s2 2s2 2p6 3s2
 
 Converged in 47 iterations to an ae energy of -5427.407 eV
 
   ============================================================                
   | Pseudopotential Report - Date of generation  6-05-2016   |                
   ------------------------------------------------------------                
   | Element: Mg Ionic charge: 10.00 Level of theory: LDA     |                
   | Atomic Solver: Koelling-Harmon                           |                
   |                                                          |                
   |               Reference Electronic Structure             |                
   |         Orbital         Occupation         Energy        |                
   |            2s              2.000           -2.914        |                
   |            2p              6.000           -1.717        |                
   |            3s              2.000           -0.176        |                
   |                                                          |                
   |                 Pseudopotential Definition               |                
   |        Beta     l      e      Rc     scheme   norm       |                
   |          1      0   -2.914   1.804     qc      0         |                
   |          2      0   -0.176   1.804     qc      0         |                
   |          3      0    0.250   1.804     qc      0         |                
   |          4      1   -1.717   1.804     qc      0         |                
   |          5      1    0.250   1.804     qc      0         |                
   |          6      2    0.000   1.804     qc      0         |                
   |          7      2    0.250   1.804     qc      0         |                
   |         loc     3    0.000   1.804     pn      0         |                
   |                                                          |                
   | Augmentation charge Rinner = 1.261                       |                
   | Partial core correction Rc = 1.261                       |                
   ------------------------------------------------------------                
   | "3|1.8|7|8|9|20U:30:21:32"                               |                
   ------------------------------------------------------------                
   |      Author: Chris J. Pickard, Cambridge University      |                
   ============================================================                
 
 Atomic calculation performed for Ca: 1s2 2s2 2p6 3s2 3p6 4s2
 
 Converged in 44 iterations to an ae energy of -18468.059 eV
 
   ============================================================                
   | Pseudopotential Report - Date of generation  6-05-2016   |                
   ------------------------------------------------------------                
   | Element: Ca Ionic charge: 10.00 Level of theory: LDA     |                
   | Atomic Solver: Koelling-Harmon                           |                
   |                                                          |                
   |               Reference Electronic Structure             |                
   |         Orbital         Occupation         Energy        |                
   |            3s              2.000           -1.721        |                
   |            3p              6.000           -1.028        |                
   |            4s              2.000           -0.142        |                
   |                                                          |                
   |                 Pseudopotential Definition               |                
   |        Beta     l      e      Rc     scheme   norm       |                
   |          1      0   -1.721   2.005     qc      0         |                
   |          2      0   -0.142   2.005     qc      0         |                
   |          3      0    0.250   2.005     qc      0         |                
   |          4      1   -1.028   2.005     qc      0         |                
   |          5      1    0.250   2.005     qc      0         |                
   |          6      2    0.000   2.005     qc      0         |                
   |          7      2    0.250   2.005     qc      0         |                
   |         loc     3    0.000   2.005     pn      0         |                
   |                                                          |                
   | Augmentation charge Rinner = 1.401                       |                
   | Partial core correction Rc = 1.401                       |                
   ------------------------------------------------------------                
   | "3|2.0|7|8|9|30U:40:31:32"                               |                
   ------------------------------------------------------------                
   |      Author: Chris J. Pickard, Cambridge University      |                
   ============================================================                
 
 Pseudo atomic calculation performed for O 2s2 2p4
 
 Converged in 30 iterations to a total energy of -431.4734 eV
 
 
 Pseudo atomic calculation performed for Mg 2s2 2p6 3s2
 
 Converged in 24 iterations to a total energy of -1684.7158 eV
 
 
 Pseudo atomic calculation performed for Ca 3s2 3p6 4s2
 
 Converged in 24 iterations to a total energy of -1001.6116 eV
 
 Calculation parallelised over 4 processes.
 Data is distributed by G-vector(2-way) and k-point(2-way)

 ************************************ Title ************************************
 MgO

 ***************************** General Parameters ******************************
  
 output verbosity                               : normal  (1)
 write checkpoint data to                       : cube_042.check
 type of calculation                            : single point energy
 stress calculation                             : on
 density difference calculation                 : off
 electron localisation func (ELF) calculation   : off
 Hirshfeld analysis                             : off
 unlimited duration calculation
 timing information                             : on
 memory usage estimate                          : on
 write final potential to formatted file        : off
 write final density to formatted file          : off
 write BibTeX reference list                    : on
 write OTFG pseudopotential files               : on
 checkpoint writing                             : both castep_bin and check files
  
 output         length unit                     : A
 output           mass unit                     : amu
 output           time unit                     : ps
 output         charge unit                     : e
 output           spin unit                     : hbar/2
 output         energy unit                     : eV
 output          force unit                     : eV/A
 output       velocity unit                     : A/ps
 output       pressure unit                     : GPa
 output     inv_length unit                     : 1/A
 output      frequency unit                     : cm-1
 output force constant unit                     : eV/A**2
 output         volume unit                     : A**3
 output   IR intensity unit                     : (D/A)**2/amu
 output         dipole unit                     : D
 output         efield unit                     : eV/A/e
 output        entropy unit                     : J/mol/K
  
 wavefunctions paging                           : none
 random number generator seed                   : randomised (140933019)
 data distribution                              : optimal for this architecture
 optimization strategy                          : maximize speed(+++)

 *********************** Exchange-Correlation Parameters ***********************
  
 using functional                               : Local Density Approximation
 relativistic treatment                         : Koelling-Harmon
 DFT+D: Semi-empirical dispersion correction    : off

 ************************* Pseudopotential Parameters **************************
  
 pseudopotential representation                 : reciprocal space
 <beta|phi> representation                      : reciprocal space
 spin-orbit coupling                            : off

 **************************** Basis Set Parameters *****************************
  
 plane wave basis set cut-off                   :   490.0000   eV
 size of standard grid                          :     2.0000
 size of   fine   gmax                          :    22.6812   1/A
 finite basis set correction                    : automatic
 number of sample energies                      :          3
           sample  spacing                      :     5.0000   eV

 **************************** Electronic Parameters ****************************
  
 number of  electrons                           :  218.0    
 net charge of system                           :  0.000    
 treating system as non-spin-polarized
 number of bands                                :        131

 ********************* Electronic Minimization Parameters **********************
  
 Method: Treating system as metallic with density mixing treatment of electrons,
         and number of  SD  steps               :          1
         and number of  CG  steps               :          4
  
 total energy / atom convergence tol.           : 0.1000E-06   eV
 eigen-energy convergence tolerance             : 0.2477E-07   eV
 max force / atom convergence tol.              : ignored
 convergence tolerance window                   :          3   cycles
 max. number of SCF cycles                      :         60
 number of fixed-spin iterations                :         10
 smearing scheme                                : Gaussian
 smearing width                                 : 0.2000       eV
 Fermi energy convergence tolerance             : 0.2721E-13   eV
 periodic dipole correction                     : NONE

 ************************** Density Mixing Parameters **************************
  
 density-mixing scheme                          : Pulay
 max. length of mixing history                  :         30
 charge density mixing amplitude                : 0.8000    
 cut-off energy for mixing                      :  490.0       eV

 *********************** Population Analysis Parameters ************************
  
 Population analysis with cutoff                :  3.000       A

 *******************************************************************************
  
 
                           -------------------------------
                                      Unit Cell
                           -------------------------------
        Real Lattice(A)                      Reciprocal Lattice(1/A)
   6.3000000   0.0000000   0.0000000        0.9973310   0.0000000   0.0000000
   0.0000000   6.3000000   0.0000000        0.0000000   0.9973310   0.0000000
   0.0000000   0.0000000   6.3000000        0.0000000   0.0000000   0.9973310
 
                       Lattice parameters(A)       Cell Angles
                    a =    6.300000          alpha =   90.000000
                    b =    6.300000          beta  =   90.000000
                    c =    6.300000          gamma =   90.000000
 
                       Current cell volume =  250.047000       A**3
 
                           -------------------------------
                                     Cell Contents
                           -------------------------------
                         Total number of ions in cell =   27
                      Total number of species in cell =    3
                        Max number of any one species =   13
 
            xxxxxxxxxxxxxxxxxxxxxxxxxxxxxxxxxxxxxxxxxxxxxxxxxxxxxxxxxxxx
            x  Element    Atom        Fractional coordinates of atoms  x
            x            Number           u          v          w      x
            x----------------------------------------------------------x
            x  O            1         0.000000   0.000000   0.333333   x 
            x  O            2         0.000000   0.333333   0.000000   x 
            x  O            3         0.000000   0.333333   0.666667   x 
            x  O            4         0.000000   0.666667   0.333333   x 
            x  O            5         0.333333   0.000000   0.000000   x 
            x  O            6         0.333333   0.000000   0.666667   x 
            x  O            7         0.333333   0.333333   0.333333   x 
            x  O            8         0.333333   0.666667   0.000000   x 
            x  O            9         0.333333   0.666667   0.666667   x 
            x  O           10         0.666667   0.000000   0.333333   x 
            x  O           11         0.666667   0.333333   0.000000   x 
            x  O           12         0.666667   0.333333   0.666667   x 
            x  O           13         0.666667   0.666667   0.333333   x 
            x  Mg           1         0.333333   0.333333   0.000000   x 
            x  Mg           2         0.333333   0.333333   0.666667   x 
            x  Mg           3         0.333333   0.666667   0.333333   x 
            x  Mg           4         0.666667   0.000000   0.000000   x 
            x  Mg           5         0.666667   0.000000   0.666667   x 
            x  Mg           6         0.666667   0.333333   0.333333   x 
            x  Mg           7         0.666667   0.666667   0.000000   x 
            x  Mg           8         0.666667   0.666667   0.666667   x 
            x  Ca           1         0.000000   0.000000   0.000000   x 
            x  Ca           2         0.000000   0.000000   0.666667   x 
            x  Ca           3         0.000000   0.333333   0.333333   x 
            x  Ca           4         0.000000   0.666667   0.000000   x 
            x  Ca           5         0.000000   0.666667   0.666667   x 
            x  Ca           6         0.333333   0.000000   0.333333   x 
            xxxxxxxxxxxxxxxxxxxxxxxxxxxxxxxxxxxxxxxxxxxxxxxxxxxxxxxxxxxx
 
 
                         No user defined ionic velocities
 
                           -------------------------------
                                   Details of Species
                           -------------------------------
 
                               Mass of species in AMU
                                    O   15.9994000
                                    Mg   24.3050000
                                    Ca   40.0780000
 
                          Electric Quadrupole Moment (Barn)
                                    O   -0.0255800 Isotope 17
                                    Mg    0.1994000 Isotope 25
                                    Ca   -0.0408000 Isotope 43
 
                          Files used for pseudopotentials:
                                    O 2|1.1|15|18|20|20:21(qc=7)
                                    Mg 3|1.8|7|8|9|20U:30:21:32
                                    Ca 3|2.0|7|8|9|30U:40:31:32
 
                           -------------------------------
                              k-Points For BZ Sampling
                           -------------------------------
                       MP grid size for SCF calculation is  3  3  3
                            with an offset of   0.000  0.000  0.000
                       Number of kpoints used =            10
 
                           -------------------------------
                               Symmetry and Constraints
                           -------------------------------
 
                      Maximum deviation from symmetry =  0.00000         ANG
 
                      Number of symmetry operations   =           2
                      Number of ionic constraints     =           3
                      Point group of crystal =     3: Cs, m, m
                      Space group of crystal =     6: Pm, P -2y
 
             Set iprint > 1 for details on symmetry rotations/translations
 
                         Centre of mass is constrained
             Set iprint > 1 for details of linear ionic constraints
 
                         Number of cell constraints= 5
                         Cell constraints are:  1 1 1 0 0 0
 
                         External pressure/stress (GPa)
                          0.00000   0.00000   0.00000
                                    0.00000   0.00000
                                              0.00000
  
+---------------- MEMORY AND SCRATCH DISK ESTIMATES PER PROCESS --------------+
|                                                     Memory          Disk    |
| Baseline code, static data and system overhead      190.0 MB         0.0 MB |
| BLAS internal memory storage                          0.0 MB         0.0 MB |
| Model and support data                              289.8 MB         0.0 MB |
| Electronic energy minimisation requirements          82.0 MB         0.0 MB |
| Force calculation requirements                        7.4 MB         0.0 MB |
| Stress calculation requirements                       8.7 MB         0.0 MB |
|                                               ----------------------------- |
| Approx. total storage required per process          561.7 MB         0.0 MB |
|                                                                             |
| Requirements will fluctuate during execution and may exceed these estimates |
+-----------------------------------------------------------------------------+
Calculating finite basis set correction with  3 cut-off energies.
Calculating total energy with cut-off of  480.000eV.
------------------------------------------------------------------------ <-- SCF
SCF loop      Energy           Fermi           Energy gain       Timer   <-- SCF
                               energy          per atom          (sec)   <-- SCF
------------------------------------------------------------------------ <-- SCF
Initial  -2.05118822E+004  0.00000000E+000                        35.07  <-- SCF
      1  -2.45862701E+004  8.74834402E+000   1.50903256E+002      81.04  <-- SCF
      2  -2.52137829E+004  6.50072449E+000   2.32412160E+001     114.98  <-- SCF
      3  -2.52369755E+004  6.19871360E+000   8.58985335E-001     150.72  <-- SCF
      4  -2.52454172E+004  9.51320790E+000   3.12652525E-001     191.10  <-- SCF
      5  -2.52175207E+004  8.35099572E+000  -1.03320164E+000     233.58  <-- SCF
      6  -2.52140161E+004  8.15851555E+000  -1.29799267E-001     275.69  <-- SCF
      7  -2.52135618E+004  8.19624689E+000  -1.68279469E-002     318.40  <-- SCF
      8  -2.52133707E+004  8.23266334E+000  -7.07716852E-003     359.63  <-- SCF
      9  -2.52133293E+004  8.26190707E+000  -1.53403629E-003     400.58  <-- SCF
     10  -2.52132657E+004  8.24996795E+000  -2.35381709E-003     441.24  <-- SCF
     11  -2.52132608E+004  8.23582230E+000  -1.83995483E-004     481.95  <-- SCF
     12  -2.52132567E+004  8.23555362E+000  -1.51070039E-004     520.90  <-- SCF
     13  -2.52132530E+004  8.23613431E+000  -1.35310551E-004     559.41  <-- SCF
     14  -2.52132524E+004  8.23800176E+000  -2.15217246E-005     598.03  <-- SCF
     15  -2.52132524E+004  8.23737156E+000  -2.75045700E-006     633.34  <-- SCF
     16  -2.52132524E+004  8.23770736E+000  -3.37066910E-007     668.44  <-- SCF
     17  -2.52132524E+004  8.23740452E+000  -2.34521157E-007     698.15  <-- SCF
     18  -2.52132524E+004  8.23743156E+000  -8.98340191E-009     724.52  <-- SCF
     19  -2.52132524E+004  8.23742450E+000   9.61300198E-011     750.77  <-- SCF
------------------------------------------------------------------------ <-- SCF
 
Final energy, E             =  -25212.97366587     eV
Final free energy (E-TS)    =  -25213.25235972     eV
(energies not corrected for finite basis set)
 
NB est. 0K energy (E-0.5TS)      =  -25213.11301280     eV
 
Calculating total energy with cut-off of  485.000eV.
------------------------------------------------------------------------ <-- SCF
SCF loop      Energy           Fermi           Energy gain       Timer   <-- SCF
                               energy          per atom          (sec)   <-- SCF
------------------------------------------------------------------------ <-- SCF
Initial  -2.52129737E+004  0.00000000E+000                       759.28  <-- SCF
      1  -2.52136189E+004  8.23259907E+000   2.38960066E-002     795.21  <-- SCF
      2  -2.52136190E+004  8.23259977E+000   6.03337211E-006     830.12  <-- SCF
      3  -2.52136209E+004  8.24650603E+000   6.84277741E-005     870.50  <-- SCF
      4  -2.52136189E+004  8.23726541E+000  -7.15959467E-005     910.06  <-- SCF
      5  -2.52136190E+004  8.23636886E+000   2.70687733E-006     946.71  <-- SCF
      6  -2.52136188E+004  8.23684357E+000  -6.03007413E-006     983.34  <-- SCF
      7  -2.52136188E+004  8.23658221E+000  -8.13235562E-007    1019.05  <-- SCF
      8  -2.52136188E+004  8.23656442E+000  -1.58750077E-007    1049.98  <-- SCF
      9  -2.52136188E+004  8.23692458E+000  -2.48094853E-007    1076.21  <-- SCF
     10  -2.52136188E+004  8.23699712E+000   8.26145286E-009    1102.46  <-- SCF
     11  -2.52136188E+004  8.23695545E+000   2.02296976E-009    1128.58  <-- SCF
------------------------------------------------------------------------ <-- SCF
 
Final energy, E             =  -25213.33952212     eV
Final free energy (E-TS)    =  -25213.61881290     eV
(energies not corrected for finite basis set)
 
NB est. 0K energy (E-0.5TS)      =  -25213.47916751     eV
 
Calculating total energy with cut-off of  490.000eV.
------------------------------------------------------------------------ <-- SCF
SCF loop      Energy           Fermi           Energy gain       Timer   <-- SCF
                               energy          per atom          (sec)   <-- SCF
------------------------------------------------------------------------ <-- SCF
Initial  -2.52133395E+004  0.00000000E+000                      1137.09  <-- SCF
      1  -2.52140859E+004  8.23188089E+000   2.76444196E-002    1173.89  <-- SCF
      2  -2.52140861E+004  8.23188101E+000   6.54625819E-006    1209.97  <-- SCF
      3  -2.52140887E+004  8.24869031E+000   9.79416809E-005    1250.28  <-- SCF
      4  -2.52140859E+004  8.23738835E+000  -1.06320818E-004    1290.82  <-- SCF
      5  -2.52140861E+004  8.23734334E+000   9.36680314E-006    1327.73  <-- SCF
      6  -2.52140858E+004  8.23729522E+000  -1.16655577E-005    1364.68  <-- SCF
      7  -2.52140858E+004  8.23677023E+000  -1.26490722E-006    1400.12  <-- SCF
      8  -2.52140858E+004  8.23706303E+000   1.43276238E-007    1432.65  <-- SCF
      9  -2.52140858E+004  8.23734583E+000  -4.35153330E-007    1461.03  <-- SCF
     10  -2.52140858E+004  8.23737083E+000   1.82413301E-008    1486.78  <-- SCF
     11  -2.52140858E+004  8.23742055E+000  -1.84537556E-009    1512.87  <-- SCF
------------------------------------------------------------------------ <-- SCF
 
Final energy, E             =  -25213.80612927     eV
Final free energy (E-TS)    =  -25214.08576721     eV
(energies not corrected for finite basis set)
 
NB est. 0K energy (E-0.5TS)      =  -25213.94594824     eV
 
 For future reference: finite basis dEtot/dlog(Ecut) =     -40.560211eV
 Total energy corrected for finite basis set =  -25214.087848 eV
 
 ***************** Symmetrised Forces *****************
 *                                                    *
 *            Cartesian components (eV/A)             *
 * -------------------------------------------------- *
 *                   x            y            z      *
 *                                                    *
 * O         1      1.97389      1.88648      0.00000 *
 * O         2      3.70800     -0.07848      1.54134 *
 * O         3      3.70800     -0.07848     -1.54134 *
 * O         4      3.87733     -1.54015      0.00000 *
 * O         5      0.94650      3.76064      1.47983 *
 * O         6      0.94650      3.76064     -1.47983 *
 * O         7      0.88063      0.87661      0.00000 *
 * O         8      0.93502     -3.38111      3.64656 *
 * O         9      0.93502     -3.38111     -3.64656 *
 * O        10     -0.87414      3.92647      0.00000 *
 * O        11     -2.86498     -0.05419      3.64014 *
 * O        12     -2.86498     -0.05419     -3.64014 *
 * O        13     -2.99893     -3.49235      0.00000 *
 * Mg        1      0.40674      0.25499      4.66012 *
 * Mg        2      0.40674      0.25499     -4.66012 *
 * Mg        3      0.38631     -5.31882      0.00000 *
 * Mg        4     -6.93301      6.54780      6.34055 *
 * Mg        5     -6.93301      6.54780     -6.34055 *
 * Mg        6     -5.30149      0.22330      0.00000 *
 * Mg        7     -7.22336     -6.64157      6.53794 *
 * Mg        8     -7.22336     -6.64157     -6.53794 *
 * Ca        1      5.03755      6.69192      6.30693 *
 * Ca        2      5.03755      6.69192     -6.30693 *
 * Ca        3      2.38961      0.35146      0.00000 *
 * Ca        4      5.50343     -6.76445      6.72609 *
 * Ca        5      5.50343     -6.76445     -6.72609 *
 * Ca        6      0.63504      2.41588      0.00000 *
 *                                                    *
 ******************************************************
 
 *********** Symmetrised Stress Tensor ***********
 *                                               *
 *          Cartesian components (GPa)           *
 * --------------------------------------------- *
 *             x             y             z     *
 *                                               *
 *  x    -49.911846      0.243806      0.000000  *
 *  y      0.243806    -55.458473      0.000000  *
 *  z      0.000000      0.000000    -57.962244  *
 *                                               *
 *  Pressure:   54.4442                          *
 *                                               *
 *************************************************
 
 Pseudo atomic calculation performed for O 2s2 2p4
 
 Converged in 30 iterations to a total energy of -431.4734 eV
 
 
 Pseudo atomic calculation performed for Mg 2s2 2p6 3s2
 
 Converged in 24 iterations to a total energy of -1684.7158 eV
 
 
 Pseudo atomic calculation performed for Ca 3s2 3p6 4s2
 
 Converged in 24 iterations to a total energy of -1001.6116 eV
 
Charge spilling parameter for spin component 1 = 0.33%
 
     Atomic Populations (Mulliken)
     -----------------------------
Species   Ion     s      p      d      f     Total  Charge (e)
==============================================================
  O        1     1.86   4.78   0.00   0.00   6.64    -0.64
  O        2     1.87   4.80   0.00   0.00   6.67    -0.67
  O        3     1.87   4.80   0.00   0.00   6.67    -0.67
  O        4     1.87   4.82   0.00   0.00   6.68    -0.68
  O        5     1.86   4.82   0.00   0.00   6.68    -0.68
  O        6     1.86   4.82   0.00   0.00   6.68    -0.68
  O        7     1.83   5.01   0.00   0.00   6.84    -0.84
  O        8     1.87   4.86   0.00   0.00   6.72    -0.72
  O        9     1.87   4.86   0.00   0.00   6.72    -0.72
  O       10     1.86   4.86   0.00   0.00   6.72    -0.72
  O       11     1.87   4.88   0.00   0.00   6.74    -0.74
  O       12     1.87   4.88   0.00   0.00   6.74    -0.74
  O       13     1.87   4.89   0.00   0.00   6.76    -0.76
  Mg       1     2.48   6.81   0.00   0.00   9.29     0.71
  Mg       2     2.48   6.81   0.00   0.00   9.29     0.71
  Mg       3     2.48   6.75   0.00   0.00   9.23     0.77
  Mg       4     2.50   6.99   0.00   0.00   9.49     0.51
  Mg       5     2.50   6.99   0.00   0.00   9.49     0.51
  Mg       6     2.51   6.79   0.00   0.00   9.30     0.70
  Mg       7     2.51   6.99   0.00   0.00   9.50     0.50
  Mg       8     2.51   6.99   0.00   0.00   9.50     0.50
  Ca       1     1.99   5.88   1.49   0.00   9.35     0.65
  Ca       2     1.99   5.88   1.49   0.00   9.35     0.65
  Ca       3     2.09   5.94   1.09   0.00   9.12     0.88
  Ca       4     1.98   5.88   1.48   0.00   9.33     0.67
  Ca       5     1.98   5.88   1.48   0.00   9.33     0.67
  Ca       6     2.10   5.94   1.08   0.00   9.12     0.88
==============================================================
 
            Bond              Population      Length (A)
============================================================
         O 13 -- Mg 8              0.69        2.10000
         O 13 -- Mg 7              0.69        2.10000
         O 13 -- Mg 6              0.30        2.10000
         O 13 -- Mg 3              0.31        2.10000
         O 12 -- Mg 8              0.67        2.10000
         O 12 -- Mg 6              0.29        2.10000
         O 12 -- Mg 5              0.67        2.10000
         O 12 -- Mg 2              0.38        2.10000
         O 11 -- Mg 7              0.67        2.10000
         O 11 -- Mg 6              0.29        2.10000
         O 11 -- Mg 4              0.67        2.10000
         O 11 -- Mg 1              0.38        2.10000
         O 10 -- Ca 6              0.17        2.10000
         O 10 -- Mg 6              0.29        2.10000
         O 10 -- Mg 5              0.68        2.10000
         O 10 -- Mg 4              0.68        2.10000
         O 9  -- Ca 5              0.60        2.10000
         O 9  -- Mg 8              0.64        2.10000
         O 9  -- Mg 3              0.32        2.10000
         O 9  -- Mg 2              0.39        2.10000
         O 8  -- Ca 4              0.60        2.10000
         O 8  -- Mg 7              0.64        2.10000
         O 8  -- Mg 3              0.32        2.10000
         O 8  -- Mg 1              0.39        2.10000
         O 7  -- Ca 6              0.31        2.10000
         O 7  -- Ca 3              0.31        2.10000
         O 7  -- Mg 6              0.14        2.10000
         O 7  -- Mg 3              0.13        2.10000
         O 7  -- Mg 2              0.25        2.10000
         O 7  -- Mg 1              0.25        2.10000
         O 6  -- Ca 6              0.18        2.10000
         O 6  -- Ca 2              0.53        2.10000
         O 6  -- Mg 5              0.66        2.10000
         O 6  -- Mg 2              0.40        2.10000
         O 5  -- Ca 6              0.18        2.10000
         O 5  -- Ca 1              0.53        2.10000
         O 5  -- Mg 4              0.66        2.10000
         O 5  -- Mg 1              0.40        2.10000
         O 4  -- Ca 5              0.36        2.10000
         O 4  -- Ca 4              0.36        2.10000
         O 4  -- Ca 3              0.17        2.10000
         O 4  -- Mg 3              0.32        2.10000
         O 3  -- Ca 5              0.34        2.10000
         O 3  -- Ca 3              0.17        2.10000
         O 3  -- Ca 2              0.35        2.10000
         O 3  -- Mg 2              0.41        2.10000
         O 2  -- Ca 4              0.34        2.10000
         O 2  -- Ca 3              0.17        2.10000
         O 2  -- Ca 1              0.35        2.10000
         O 2  -- Mg 1              0.41        2.10000
         O 1  -- Ca 6              0.15        2.10000
         O 1  -- Ca 3              0.15        2.10000
         O 1  -- Ca 2              0.34        2.10000
         O 1  -- Ca 1              0.34        2.10000
         Ca 4 -- Ca 5             -1.48        2.10000
         Ca 2 -- Ca 5             -1.39        2.10000
         Ca 1 -- Ca 4             -1.39        2.10000
         Ca 1 -- Ca 2             -0.91        2.10000
         Mg 8 -- Ca 5             -1.29        2.10000
         Mg 7 -- Ca 4             -1.29        2.10000
         Mg 7 -- Mg 8             -1.58        2.10000
         Mg 6 -- Ca 3             -1.13        2.10000
         Mg 5 -- Ca 2             -1.09        2.10000
         Mg 5 -- Mg 8             -1.57        2.10000
         Mg 4 -- Ca 1             -1.09        2.10000
         Mg 4 -- Mg 7             -1.57        2.10000
         Mg 4 -- Mg 5             -1.61        2.10000
         Mg 3 -- Ca 6             -1.15        2.10000
         Mg 1 -- Mg 2             -1.97        2.10000
         O 11 -- O 12             -0.21        2.10000
         O 10 -- O 13             -0.21        2.10000
         O 8  -- O 9              -0.20        2.10000
         O 6  -- O 9              -0.19        2.10000
         O 5  -- O 8              -0.19        2.10000
         O 5  -- O 6              -0.18        2.10000
         O 4  -- O 13             -0.19        2.10000
         O 3  -- O 12             -0.18        2.10000
         O 2  -- O 11             -0.18        2.10000
         O 2  -- O 3              -0.17        2.10000
         O 1  -- O 10             -0.17        2.10000
         O 1  -- O 4              -0.18        2.10000
         Ca 3 -- Ca 6             -0.29        2.96985
         Ca 3 -- Ca 5              0.03        2.96985
         Ca 3 -- Ca 4              0.03        2.96985
         Ca 2 -- Ca 6             -0.19        2.96985
         Ca 2 -- Ca 3             -0.05        2.96985
         Ca 1 -- Ca 6             -0.19        2.96985
         Ca 1 -- Ca 3             -0.05        2.96985
         Mg 6 -- Ca 6             -0.06        2.96985
         Mg 6 -- Mg 8             -0.25        2.96985
         Mg 6 -- Mg 7             -0.25        2.96985
         Mg 5 -- Ca 6             -0.12        2.96985
         Mg 5 -- Mg 6             -0.29        2.96985
         Mg 4 -- Ca 6             -0.12        2.96985
         Mg 4 -- Mg 6             -0.29        2.96985
         Mg 3 -- Ca 5             -0.31        2.96985
         Mg 3 -- Ca 4             -0.31        2.96985
         Mg 3 -- Ca 3             -0.18        2.96985
         Mg 3 -- Mg 8             -0.24        2.96985
         Mg 3 -- Mg 7             -0.24        2.96985
         Mg 3 -- Mg 6             -0.20        2.96985
         Mg 2 -- Ca 6             -0.29        2.96985
         Mg 2 -- Ca 5             -0.29        2.96985
         Mg 2 -- Ca 3             -0.31        2.96985
         Mg 2 -- Ca 2             -0.34        2.96985
         Mg 2 -- Mg 8             -0.25        2.96985
         Mg 2 -- Mg 6             -0.17        2.96985
         Mg 2 -- Mg 5             -0.24        2.96985
         Mg 2 -- Mg 3             -0.17        2.96985
         Mg 1 -- Ca 6             -0.29        2.96985
         Mg 1 -- Ca 4             -0.29        2.96985
         Mg 1 -- Ca 3             -0.31        2.96985
         Mg 1 -- Ca 1             -0.34        2.96985
         Mg 1 -- Mg 7             -0.25        2.96985
         Mg 1 -- Mg 6             -0.17        2.96985
         Mg 1 -- Mg 4             -0.24        2.96985
         Mg 1 -- Mg 3             -0.17        2.96985
         O 12 -- O 13             -0.04        2.96985
         O 11 -- O 13             -0.04        2.96985
         O 10 -- O 12             -0.04        2.96985
         O 10 -- O 11             -0.04        2.96985
         O 9  -- O 13             -0.04        2.96985
         O 9  -- O 12             -0.04        2.96985
         O 8  -- O 13             -0.04        2.96985
         O 8  -- O 11             -0.04        2.96985
         O 7  -- O 13             -0.03        2.96985
         O 7  -- O 12             -0.03        2.96985
         O 7  -- O 11             -0.03        2.96985
         O 7  -- O 10             -0.02        2.96985
         O 7  -- O 9              -0.03        2.96985
         O 7  -- O 8              -0.03        2.96985
         O 6  -- O 12             -0.04        2.96985
         O 6  -- O 10             -0.02        2.96985
         O 6  -- O 7              -0.02        2.96985
         O 5  -- O 11             -0.04        2.96985
         O 5  -- O 10             -0.02        2.96985
         O 5  -- O 7              -0.02        2.96985
         O 4  -- O 9              -0.03        2.96985
         O 4  -- O 8              -0.03        2.96985
         O 4  -- O 7              -0.02        2.96985
         O 3  -- O 9              -0.03        2.96985
         O 3  -- O 7              -0.02        2.96985
         O 3  -- O 6              -0.03        2.96985
         O 3  -- O 4              -0.01        2.96985
         O 2  -- O 8              -0.03        2.96985
         O 2  -- O 7              -0.02        2.96985
         O 2  -- O 5              -0.03        2.96985
         O 2  -- O 4              -0.01        2.96985
         O 1  -- O 7              -0.01        2.96985
         O 1  -- O 6              -0.01        2.96985
         O 1  -- O 5              -0.01        2.96985
         O 1  -- O 3              -0.01        2.96985
         O 1  -- O 2              -0.01        2.96985
         Ca 2 -- Ca 4              0.34        2.96985
         Ca 1 -- Ca 5              0.34        2.96985
         Mg 8 -- Ca 4             -0.27        2.96985
         Mg 8 -- Ca 2             -0.22        2.96985
         Mg 7 -- Ca 5             -0.27        2.96985
         Mg 7 -- Ca 1             -0.22        2.96985
         Mg 5 -- Ca 5             -0.28        2.96985
         Mg 5 -- Ca 1             -0.26        2.96985
         Mg 5 -- Mg 7             -0.32        2.96985
         Mg 4 -- Ca 4             -0.28        2.96985
         Mg 4 -- Ca 2             -0.26        2.96985
         Mg 4 -- Mg 8             -0.32        2.96985
         O 13 -- Ca 6             -0.07        2.96985
         O 13 -- Ca 5             -0.12        2.96985
         O 13 -- Ca 4             -0.12        2.96985
         O 13 -- Ca 3             -0.07        2.96985
         O 13 -- Mg 5             -0.16        2.96985
         O 13 -- Mg 4             -0.16        2.96985
         O 12 -- Ca 5             -0.11        2.96985
         O 12 -- Ca 3             -0.07        2.96985
         O 12 -- Ca 2             -0.10        2.96985
         O 12 -- Mg 7             -0.16        2.96985
         O 12 -- Mg 4             -0.15        2.96985
         O 12 -- Mg 1             -0.12        2.96985
         O 11 -- Ca 4             -0.11        2.96985
         O 11 -- Ca 3             -0.07        2.96985
         O 11 -- Ca 1             -0.10        2.96985
         O 11 -- Mg 8             -0.16        2.96985
         O 11 -- Mg 5             -0.15        2.96985
         O 11 -- Mg 2             -0.12        2.96985
         O 10 -- Ca 3             -0.09        2.96985
         O 10 -- Ca 2             -0.12        2.96985
         O 10 -- Ca 1             -0.12        2.96985
         O 10 -- Mg 8             -0.17        2.96985
         O 10 -- Mg 7             -0.17        2.96985
         O 10 -- Mg 3             -0.06        2.96985
         O 9  -- Ca 6             -0.08        2.96985
         O 9  -- Ca 4             -0.09        2.96985
         O 9  -- Ca 2             -0.10        2.96985
         O 9  -- Mg 7             -0.19        2.96985
         O 9  -- Mg 5             -0.18        2.96985
         O 9  -- Mg 1             -0.13        2.96985
         O 8  -- Ca 6             -0.08        2.96985
         O 8  -- Ca 5             -0.09        2.96985
         O 8  -- Ca 1             -0.10        2.96985
         O 8  -- Mg 8             -0.19        2.96985
         O 8  -- Mg 4             -0.18        2.96985
         O 8  -- Mg 2             -0.13        2.96985
         O 6  -- Ca 5             -0.09        2.96985
         O 6  -- Ca 1             -0.06        2.96985
         O 6  -- Mg 8             -0.18        2.96985
         O 6  -- Mg 4             -0.21        2.96985
         O 6  -- Mg 3             -0.06        2.96985
         O 6  -- Mg 1             -0.17        2.96985
         O 6  -- O 8              -0.02        2.96985
         O 5  -- Ca 4             -0.09        2.96985
         O 5  -- Ca 2             -0.06        2.96985
         O 5  -- Mg 7             -0.18        2.96985
         O 5  -- Mg 5             -0.21        2.96985
         O 5  -- Mg 3             -0.06        2.96985
         O 5  -- Mg 2             -0.17        2.96985
         O 5  -- O 9              -0.02        2.96985
         O 4  -- Ca 6             -0.10        2.96985
         O 4  -- Ca 2             -0.03        2.96985
         O 4  -- Ca 1             -0.03        2.96985
         O 4  -- Mg 8             -0.06        2.96985
         O 4  -- Mg 7             -0.06        2.96985
         O 4  -- Mg 6             -0.04        2.96985
         O 4  -- O 10             -0.02        2.96985
         O 3  -- Ca 4             -0.03        2.96985
         O 3  -- Ca 1             -0.03        2.96985
         O 3  -- Mg 8             -0.06        2.96985
         O 3  -- Mg 6             -0.05        2.96985
         O 3  -- Mg 5             -0.06        2.96985
         O 3  -- Mg 1             -0.16        2.96985
         O 3  -- O 11             -0.02        2.96985
         O 2  -- Ca 5             -0.03        2.96985
         O 2  -- Ca 2             -0.03        2.96985
         O 2  -- Mg 7             -0.06        2.96985
         O 2  -- Mg 6             -0.05        2.96985
         O 2  -- Mg 4             -0.06        2.96985
         O 2  -- Mg 2             -0.16        2.96985
         O 2  -- O 12             -0.02        2.96985
         O 1  -- Ca 5             -0.03        2.96985
         O 1  -- Ca 4             -0.03        2.96985
         O 1  -- Mg 6             -0.06        2.96985
         O 1  -- Mg 5             -0.06        2.96985
         O 1  -- Mg 4             -0.06        2.96985
         O 1  -- Mg 3             -0.05        2.96985
         O 1  -- O 13             -0.02        2.96985
============================================================
 

Writing analysis data to cube_042.castep_bin

Writing model to cube_042.check
 
 A BibTeX formatted list of references used in this run has been written to 
 cube_042.bib
 
Initialisation time =     26.83 s
Calculation time    =   1568.06 s
Finalisation time   =      0.30 s
Total time          =   1595.20 s
Peak Memory Use     = 916868 kB
  
Overall parallel efficiency rating: Good (71%)                                  
  
Data was distributed by:-
G-vector (2-way); efficiency rating: Good (71%)                                 
k-point (2-way); efficiency rating: Excellent (98%)                             
