 +-------------------------------------------------+
 |                                                 |
 |      CCC   AA    SSS  TTTTT  EEEEE  PPPP        |
 |     C     A  A  S       T    E      P   P       |
 |     C     AAAA   SS     T    EEE    PPPP        |
 |     C     A  A     S    T    E      P           |
 |      CCC  A  A  SSS     T    EEEEE  P           |
 |                                                 |
 +-------------------------------------------------+
 |                                                 |
 | Welcome to Academic Release CASTEP version 9.0  |
 | Ab Initio Total Energy Program                  |
 |                                                 |
 | Authors:                                        |
 | M. Segall, M. Probert, C. Pickard, P. Hasnip,   |
 | S. Clark, K. Refson, J. R. Yates, M. Payne      |
 |                                                 |
 | Contributors:                                   |
 | P. Lindan, P. Haynes, J. White, V. Milman,      |
 | N. Govind, M. Gibson, P. Tulip, V. Cocula,      |
 | B. Montanari, D. Quigley, M. Glover,            |
 | L. Bernasconi, A. Perlov, M. Plummer,           |
 | E. McNellis, J. Meyer, J. Gale, D. Jochym       |
 | J. Aarons, B. Walker, R. Gillen, D. Jones       |
 | T. Green, I. J. Bush, C. J. Armstrong,          |
 | E. J. Higgins, M. D. Hodgson                    |
 |                                                 |
 | Copyright (c) 2000 - 2015                       |
 |                                                 |
 |     Distributed under the terms of an           |
 |     Agreement between the United Kingdom        |
 |     Car-Parrinello (UKCP) Consortium,           |
 |     Daresbury Laboratory and Accelrys, Inc.     |
 |                                                 |
 | Please cite                                     |
 |                                                 |
 |     "First principles methods using CASTEP"     |
 |                                                 |
 |         Zeitschrift fuer Kristallographie       |
 |           220(5-6) pp. 567-570 (2005)           |
 |                                                 |
 | S. J. Clark, M. D. Segall, C. J. Pickard,       |
 | P. J. Hasnip, M. J. Probert, K. Refson,         |
 | M. C. Payne                                     |
 |                                                 |
 |       in all publications arising from          |
 |              your use of CASTEP                 |
 |                                                 |
 +-------------------------------------------------+
 
 
 Compiled for linux_x86_64_ifort12 on Fri, 09 Oct 2015 16:14:59 +0100
 from code version 01cdeb6dcbec+  Thu, 01 Oct 2015 17:06:55 +0100
 Compiler: Intel Fortran 12.1.5.339; Optimisation: fast
 MATHLIBS: Intel MKL(11.0.5) (LAPACK version 3.4.1)
 FFT Lib : default
 Fundamental constants values: CODATA 2010
 
 Run started: Fri, 06 May 2016 16:28:07 +0100
 
 Atomic calculation performed for O: 1s2 2s2 2p4
 
 Converged in 60 iterations to an ae energy of -2027.926 eV
 
   ============================================================                
   | Pseudopotential Report - Date of generation  6-05-2016   |                
   ------------------------------------------------------------                
   | Element: O Ionic charge:  6.00 Level of theory: LDA      |                
   | Atomic Solver: Koelling-Harmon                           |                
   |                                                          |                
   |               Reference Electronic Structure             |                
   |         Orbital         Occupation         Energy        |                
   |            2s              2.000           -0.873        |                
   |            2p              4.000           -0.338        |                
   |                                                          |                
   |                 Pseudopotential Definition               |                
   |        Beta     l      e      Rc     scheme   norm       |                
   |          1      0   -0.873   1.100     qc      0         |                
   |          2      0    0.250   1.100     qc      0         |                
   |          3      1   -0.338   1.100     qc      0         |                
   |          4      1    0.250   1.100     qc      0         |                
   |         loc     2    0.000   1.100     pn      0         |                
   |                                                          |                
   | Augmentation charge Rinner = 0.769                       |                
   | Partial core correction Rc = 0.769                       |                
   ------------------------------------------------------------                
   | "2|1.1|15|18|20|20:21(qc=7)"                             |                
   ------------------------------------------------------------                
   |      Author: Chris J. Pickard, Cambridge University      |                
   ============================================================                
 
 Atomic calculation performed for Mg: 1s2 2s2 2p6 3s2
 
 Converged in 47 iterations to an ae energy of -5427.407 eV
 
   ============================================================                
   | Pseudopotential Report - Date of generation  6-05-2016   |                
   ------------------------------------------------------------                
   | Element: Mg Ionic charge: 10.00 Level of theory: LDA     |                
   | Atomic Solver: Koelling-Harmon                           |                
   |                                                          |                
   |               Reference Electronic Structure             |                
   |         Orbital         Occupation         Energy        |                
   |            2s              2.000           -2.914        |                
   |            2p              6.000           -1.717        |                
   |            3s              2.000           -0.176        |                
   |                                                          |                
   |                 Pseudopotential Definition               |                
   |        Beta     l      e      Rc     scheme   norm       |                
   |          1      0   -2.914   1.804     qc      0         |                
   |          2      0   -0.176   1.804     qc      0         |                
   |          3      0    0.250   1.804     qc      0         |                
   |          4      1   -1.717   1.804     qc      0         |                
   |          5      1    0.250   1.804     qc      0         |                
   |          6      2    0.000   1.804     qc      0         |                
   |          7      2    0.250   1.804     qc      0         |                
   |         loc     3    0.000   1.804     pn      0         |                
   |                                                          |                
   | Augmentation charge Rinner = 1.261                       |                
   | Partial core correction Rc = 1.261                       |                
   ------------------------------------------------------------                
   | "3|1.8|7|8|9|20U:30:21:32"                               |                
   ------------------------------------------------------------                
   |      Author: Chris J. Pickard, Cambridge University      |                
   ============================================================                
 
 Atomic calculation performed for Ca: 1s2 2s2 2p6 3s2 3p6 4s2
 
 Converged in 44 iterations to an ae energy of -18468.059 eV
 
   ============================================================                
   | Pseudopotential Report - Date of generation  6-05-2016   |                
   ------------------------------------------------------------                
   | Element: Ca Ionic charge: 10.00 Level of theory: LDA     |                
   | Atomic Solver: Koelling-Harmon                           |                
   |                                                          |                
   |               Reference Electronic Structure             |                
   |         Orbital         Occupation         Energy        |                
   |            3s              2.000           -1.721        |                
   |            3p              6.000           -1.028        |                
   |            4s              2.000           -0.142        |                
   |                                                          |                
   |                 Pseudopotential Definition               |                
   |        Beta     l      e      Rc     scheme   norm       |                
   |          1      0   -1.721   2.005     qc      0         |                
   |          2      0   -0.142   2.005     qc      0         |                
   |          3      0    0.250   2.005     qc      0         |                
   |          4      1   -1.028   2.005     qc      0         |                
   |          5      1    0.250   2.005     qc      0         |                
   |          6      2    0.000   2.005     qc      0         |                
   |          7      2    0.250   2.005     qc      0         |                
   |         loc     3    0.000   2.005     pn      0         |                
   |                                                          |                
   | Augmentation charge Rinner = 1.401                       |                
   | Partial core correction Rc = 1.401                       |                
   ------------------------------------------------------------                
   | "3|2.0|7|8|9|30U:40:31:32"                               |                
   ------------------------------------------------------------                
   |      Author: Chris J. Pickard, Cambridge University      |                
   ============================================================                
 
 Pseudo atomic calculation performed for O 2s2 2p4
 
 Converged in 30 iterations to a total energy of -431.4734 eV
 
 
 Pseudo atomic calculation performed for Mg 2s2 2p6 3s2
 
 Converged in 24 iterations to a total energy of -1684.7158 eV
 
 
 Pseudo atomic calculation performed for Ca 3s2 3p6 4s2
 
 Converged in 24 iterations to a total energy of -1001.6116 eV
 
 Calculation parallelised over 3 processes.
 Data is distributed by k-point(3-way)

 ************************************ Title ************************************
 MgO

 ***************************** General Parameters ******************************
  
 output verbosity                               : normal  (1)
 write checkpoint data to                       : cube_078.check
 type of calculation                            : single point energy
 stress calculation                             : on
 density difference calculation                 : off
 electron localisation func (ELF) calculation   : off
 Hirshfeld analysis                             : off
 unlimited duration calculation
 timing information                             : on
 memory usage estimate                          : on
 write final potential to formatted file        : off
 write final density to formatted file          : off
 write BibTeX reference list                    : on
 write OTFG pseudopotential files               : on
 checkpoint writing                             : both castep_bin and check files
  
 output         length unit                     : A
 output           mass unit                     : amu
 output           time unit                     : ps
 output         charge unit                     : e
 output           spin unit                     : hbar/2
 output         energy unit                     : eV
 output          force unit                     : eV/A
 output       velocity unit                     : A/ps
 output       pressure unit                     : GPa
 output     inv_length unit                     : 1/A
 output      frequency unit                     : cm-1
 output force constant unit                     : eV/A**2
 output         volume unit                     : A**3
 output   IR intensity unit                     : (D/A)**2/amu
 output         dipole unit                     : D
 output         efield unit                     : eV/A/e
 output        entropy unit                     : J/mol/K
  
 wavefunctions paging                           : none
 random number generator seed                   : randomised (162807492)
 data distribution                              : optimal for this architecture
 optimization strategy                          : maximize speed(+++)

 *********************** Exchange-Correlation Parameters ***********************
  
 using functional                               : Local Density Approximation
 relativistic treatment                         : Koelling-Harmon
 DFT+D: Semi-empirical dispersion correction    : off

 ************************* Pseudopotential Parameters **************************
  
 pseudopotential representation                 : reciprocal space
 <beta|phi> representation                      : reciprocal space
 spin-orbit coupling                            : off

 **************************** Basis Set Parameters *****************************
  
 plane wave basis set cut-off                   :   490.0000   eV
 size of standard grid                          :     2.0000
 size of   fine   gmax                          :    22.6812   1/A
 finite basis set correction                    : automatic
 number of sample energies                      :          3
           sample  spacing                      :     5.0000   eV

 **************************** Electronic Parameters ****************************
  
 number of  electrons                           :  218.0    
 net charge of system                           :  0.000    
 treating system as non-spin-polarized
 number of bands                                :        131

 ********************* Electronic Minimization Parameters **********************
  
 Method: Treating system as metallic with density mixing treatment of electrons,
         and number of  SD  steps               :          1
         and number of  CG  steps               :          4
  
 total energy / atom convergence tol.           : 0.1000E-06   eV
 eigen-energy convergence tolerance             : 0.2477E-07   eV
 max force / atom convergence tol.              : ignored
 convergence tolerance window                   :          3   cycles
 max. number of SCF cycles                      :         60
 number of fixed-spin iterations                :         10
 smearing scheme                                : Gaussian
 smearing width                                 : 0.2000       eV
 Fermi energy convergence tolerance             : 0.2721E-13   eV
 periodic dipole correction                     : NONE

 ************************** Density Mixing Parameters **************************
  
 density-mixing scheme                          : Pulay
 max. length of mixing history                  :         30
 charge density mixing amplitude                : 0.8000    
 cut-off energy for mixing                      :  490.0       eV

 *********************** Population Analysis Parameters ************************
  
 Population analysis with cutoff                :  3.000       A

 *******************************************************************************
  
 
                           -------------------------------
                                      Unit Cell
                           -------------------------------
        Real Lattice(A)                      Reciprocal Lattice(1/A)
   6.3000000   0.0000000   0.0000000        0.9973310   0.0000000   0.0000000
   0.0000000   6.3000000   0.0000000        0.0000000   0.9973310   0.0000000
   0.0000000   0.0000000   6.3000000        0.0000000   0.0000000   0.9973310
 
                       Lattice parameters(A)       Cell Angles
                    a =    6.300000          alpha =   90.000000
                    b =    6.300000          beta  =   90.000000
                    c =    6.300000          gamma =   90.000000
 
                       Current cell volume =  250.047000       A**3
 
                           -------------------------------
                                     Cell Contents
                           -------------------------------
                         Total number of ions in cell =   27
                      Total number of species in cell =    3
                        Max number of any one species =   13
 
            xxxxxxxxxxxxxxxxxxxxxxxxxxxxxxxxxxxxxxxxxxxxxxxxxxxxxxxxxxxx
            x  Element    Atom        Fractional coordinates of atoms  x
            x            Number           u          v          w      x
            x----------------------------------------------------------x
            x  O            1         0.000000   0.000000   0.333333   x 
            x  O            2         0.000000   0.333333   0.000000   x 
            x  O            3         0.000000   0.333333   0.666667   x 
            x  O            4         0.000000   0.666667   0.333333   x 
            x  O            5         0.333333   0.000000   0.000000   x 
            x  O            6         0.333333   0.000000   0.666667   x 
            x  O            7         0.333333   0.333333   0.333333   x 
            x  O            8         0.333333   0.666667   0.000000   x 
            x  O            9         0.333333   0.666667   0.666667   x 
            x  O           10         0.666667   0.000000   0.333333   x 
            x  O           11         0.666667   0.333333   0.000000   x 
            x  O           12         0.666667   0.333333   0.666667   x 
            x  O           13         0.666667   0.666667   0.333333   x 
            x  Mg           1         0.666667   0.333333   0.333333   x 
            x  Mg           2         0.666667   0.666667   0.000000   x 
            x  Mg           3         0.666667   0.666667   0.666667   x 
            x  Ca           1         0.000000   0.000000   0.000000   x 
            x  Ca           2         0.000000   0.000000   0.666667   x 
            x  Ca           3         0.000000   0.333333   0.333333   x 
            x  Ca           4         0.000000   0.666667   0.000000   x 
            x  Ca           5         0.000000   0.666667   0.666667   x 
            x  Ca           6         0.333333   0.000000   0.333333   x 
            x  Ca           7         0.333333   0.333333   0.000000   x 
            x  Ca           8         0.333333   0.333333   0.666667   x 
            x  Ca           9         0.333333   0.666667   0.333333   x 
            x  Ca          10         0.666667   0.000000   0.000000   x 
            x  Ca          11         0.666667   0.000000   0.666667   x 
            xxxxxxxxxxxxxxxxxxxxxxxxxxxxxxxxxxxxxxxxxxxxxxxxxxxxxxxxxxxx
 
 
                         No user defined ionic velocities
 
                           -------------------------------
                                   Details of Species
                           -------------------------------
 
                               Mass of species in AMU
                                    O   15.9994000
                                    Mg   24.3050000
                                    Ca   40.0780000
 
                          Electric Quadrupole Moment (Barn)
                                    O   -0.0255800 Isotope 17
                                    Mg    0.1994000 Isotope 25
                                    Ca   -0.0408000 Isotope 43
 
                          Files used for pseudopotentials:
                                    O 2|1.1|15|18|20|20:21(qc=7)
                                    Mg 3|1.8|7|8|9|20U:30:21:32
                                    Ca 3|2.0|7|8|9|30U:40:31:32
 
                           -------------------------------
                              k-Points For BZ Sampling
                           -------------------------------
                       MP grid size for SCF calculation is  3  3  3
                            with an offset of   0.000  0.000  0.000
                       Number of kpoints used =            10
 
                           -------------------------------
                               Symmetry and Constraints
                           -------------------------------
 
                      Maximum deviation from symmetry =  0.00000         ANG
 
                      Number of symmetry operations   =           2
                      Number of ionic constraints     =           3
                      Point group of crystal =     3: Cs, m, m
                      Space group of crystal =     6: Pm, P -2y
 
             Set iprint > 1 for details on symmetry rotations/translations
 
                         Centre of mass is constrained
             Set iprint > 1 for details of linear ionic constraints
 
                         Number of cell constraints= 5
                         Cell constraints are:  1 1 1 0 0 0
 
                         External pressure/stress (GPa)
                          0.00000   0.00000   0.00000
                                    0.00000   0.00000
                                              0.00000
  
+---------------- MEMORY AND SCRATCH DISK ESTIMATES PER PROCESS --------------+
|                                                     Memory          Disk    |
| Baseline code, static data and system overhead      212.0 MB         0.0 MB |
| BLAS internal memory storage                          0.0 MB         0.0 MB |
| Model and support data                              516.4 MB         0.0 MB |
| Electronic energy minimisation requirements         134.9 MB         0.0 MB |
| Force calculation requirements                       14.3 MB         0.0 MB |
| Stress calculation requirements                      16.9 MB         0.0 MB |
|                                               ----------------------------- |
| Approx. total storage required per process          863.3 MB         0.0 MB |
|                                                                             |
| Requirements will fluctuate during execution and may exceed these estimates |
+-----------------------------------------------------------------------------+
Calculating finite basis set correction with  3 cut-off energies.
Calculating total energy with cut-off of  480.000eV.
------------------------------------------------------------------------ <-- SCF
SCF loop      Energy           Fermi           Energy gain       Timer   <-- SCF
                               energy          per atom          (sec)   <-- SCF
------------------------------------------------------------------------ <-- SCF
Initial  -1.77167263E+004  0.00000000E+000                        15.13  <-- SCF
      1  -2.11648907E+004  1.05093087E+001   1.27709794E+002      34.72  <-- SCF
      2  -2.17942737E+004  8.12363029E+000   2.33104829E+001      49.26  <-- SCF
      3  -2.18147556E+004  8.03151948E+000   7.58586449E-001      63.65  <-- SCF
      4  -2.18326532E+004  1.10496813E+001   6.62877155E-001      81.77  <-- SCF
      5  -2.17970942E+004  9.52303332E+000  -1.31700166E+000     100.65  <-- SCF
      6  -2.17962925E+004  9.52844503E+000  -2.96938667E-002     119.62  <-- SCF
      7  -2.17952754E+004  9.50900656E+000  -3.76681888E-002     137.71  <-- SCF
      8  -2.17951755E+004  9.53057764E+000  -3.70157734E-003     155.92  <-- SCF
      9  -2.17950560E+004  9.55282851E+000  -4.42602425E-003     174.23  <-- SCF
     10  -2.17950224E+004  9.56334392E+000  -1.24231825E-003     192.64  <-- SCF
     11  -2.17949983E+004  9.57091298E+000  -8.93910869E-004     210.76  <-- SCF
     12  -2.17949949E+004  9.56349660E+000  -1.27160394E-004     228.78  <-- SCF
     13  -2.17949929E+004  9.56306546E+000  -7.31556040E-005     246.94  <-- SCF
     14  -2.17949928E+004  9.56416793E+000  -2.91771075E-006     264.27  <-- SCF
     15  -2.17949928E+004  9.56428930E+000  -1.10201209E-008     280.01  <-- SCF
     16  -2.17949928E+004  9.56425873E+000  -2.95857265E-007     294.18  <-- SCF
     17  -2.17949928E+004  9.56421318E+000  -4.63803857E-008     306.59  <-- SCF
     18  -2.17949928E+004  9.56425241E+000  -1.45421003E-009     318.63  <-- SCF
------------------------------------------------------------------------ <-- SCF
 
Final energy, E             =  -21794.75568990     eV
Final free energy (E-TS)    =  -21794.99279613     eV
(energies not corrected for finite basis set)
 
NB est. 0K energy (E-0.5TS)      =  -21794.87424302     eV
 
Calculating total energy with cut-off of  485.000eV.
------------------------------------------------------------------------ <-- SCF
SCF loop      Energy           Fermi           Energy gain       Timer   <-- SCF
                               energy          per atom          (sec)   <-- SCF
------------------------------------------------------------------------ <-- SCF
Initial  -2.17947557E+004  0.00000000E+000                       323.01  <-- SCF
      1  -2.17953538E+004  9.55890084E+000   2.21516395E-002     338.65  <-- SCF
      2  -2.17953539E+004  9.55889812E+000   4.67621731E-006     354.89  <-- SCF
      3  -2.17953549E+004  9.57236449E+000   3.63997470E-005     373.37  <-- SCF
      4  -2.17953537E+004  9.56223111E+000  -4.25698127E-005     391.78  <-- SCF
      5  -2.17953538E+004  9.56316147E+000   1.54620703E-006     408.89  <-- SCF
      6  -2.17953537E+004  9.56298102E+000  -1.89427469E-006     425.19  <-- SCF
      7  -2.17953537E+004  9.56293978E+000  -8.68153302E-007     440.21  <-- SCF
      8  -2.17953537E+004  9.56303741E+000  -2.00073038E-008     452.26  <-- SCF
      9  -2.17953537E+004  9.56310535E+000  -5.97793522E-009     463.88  <-- SCF
------------------------------------------------------------------------ <-- SCF
 
Final energy, E             =  -21795.11621003     eV
Final free energy (E-TS)    =  -21795.35371002     eV
(energies not corrected for finite basis set)
 
NB est. 0K energy (E-0.5TS)      =  -21795.23496002     eV
 
Calculating total energy with cut-off of  490.000eV.
------------------------------------------------------------------------ <-- SCF
SCF loop      Energy           Fermi           Energy gain       Timer   <-- SCF
                               energy          per atom          (sec)   <-- SCF
------------------------------------------------------------------------ <-- SCF
Initial  -2.17951162E+004  0.00000000E+000                       468.17  <-- SCF
      1  -2.17958197E+004  9.55861098E+000   2.60544003E-002     483.37  <-- SCF
      2  -2.17958198E+004  9.55860635E+000   5.28667216E-006     499.17  <-- SCF
      3  -2.17958228E+004  9.57467016E+000   1.11507899E-004     516.98  <-- SCF
      4  -2.17958199E+004  9.56670001E+000  -1.07638395E-004     534.23  <-- SCF
      5  -2.17958196E+004  9.56200817E+000  -1.26701454E-005     551.54  <-- SCF
      6  -2.17958195E+004  9.56392550E+000  -2.18863295E-006     567.79  <-- SCF
      7  -2.17958195E+004  9.56375080E+000  -1.04815201E-006     583.27  <-- SCF
      8  -2.17958195E+004  9.56370048E+000  -1.45594014E-008     595.54  <-- SCF
      9  -2.17958195E+004  9.56385604E+000  -8.59696840E-008     606.62  <-- SCF
     10  -2.17958195E+004  9.56390426E+000  -5.55021965E-009     617.67  <-- SCF
------------------------------------------------------------------------ <-- SCF
 
Final energy, E             =  -21795.58161042     eV
Final free energy (E-TS)    =  -21795.81949034     eV
(energies not corrected for finite basis set)
 
NB est. 0K energy (E-0.5TS)      =  -21795.70055038     eV
 
 For future reference: finite basis dEtot/dlog(Ecut) =     -40.247075eV
 Total energy corrected for finite basis set =  -21795.821555 eV
 
 ***************** Symmetrised Forces *****************
 *                                                    *
 *            Cartesian components (eV/A)             *
 * -------------------------------------------------- *
 *                   x            y            z      *
 *                                                    *
 * O         1      2.06283      2.00775      0.00000 *
 * O         2      2.08077      0.18607      2.00375 *
 * O         3      2.08077      0.18607     -2.00375 *
 * O         4      2.19445     -1.96757      0.00000 *
 * O         5      0.14606      2.00717      1.98241 *
 * O         6      0.14606      2.00717     -1.98241 *
 * O         7      0.87289      0.02753      0.00000 *
 * O         8      1.14859     -1.71869      1.92847 *
 * O         9      1.14859     -1.71869     -1.92847 *
 * O        10     -1.60280      3.96042      0.00000 *
 * O        11     -1.35961      1.25600      3.88340 *
 * O        12     -1.35961      1.25600     -3.88340 *
 * O        13     -1.14535     -3.53535      0.00000 *
 * Mg        1     -4.59682      0.08260      0.00000 *
 * Mg        2     -6.25733     -6.49235      6.46515 *
 * Mg        3     -6.25733     -6.49235     -6.46515 *
 * Ca        1      5.46533      5.49011      4.99435 *
 * Ca        2      5.46533      5.49011     -4.99435 *
 * Ca        3      1.22746     -0.10398      0.00000 *
 * Ca        4      4.83370     -6.23854      6.24556 *
 * Ca        5      4.83370     -6.23854     -6.24556 *
 * Ca        6      0.16452      4.58655      0.00000 *
 * Ca        7      0.33041      0.06349      4.54015 *
 * Ca        8      0.33041      0.06349     -4.54015 *
 * Ca        9      0.46274     -4.55006      0.00000 *
 * Ca       10     -6.20787      5.19279      6.60624 *
 * Ca       11     -6.20787      5.19279     -6.60624 *
 *                                                    *
 ******************************************************
 
 *********** Symmetrised Stress Tensor ***********
 *                                               *
 *          Cartesian components (GPa)           *
 * --------------------------------------------- *
 *             x             y             z     *
 *                                               *
 *  x    -77.918151      3.003120      0.000000  *
 *  y      3.003120    -80.028159      0.000000  *
 *  z      0.000000      0.000000    -81.541539  *
 *                                               *
 *  Pressure:   79.8293                          *
 *                                               *
 *************************************************
 
 Pseudo atomic calculation performed for O 2s2 2p4
 
 Converged in 30 iterations to a total energy of -431.4734 eV
 
 
 Pseudo atomic calculation performed for Mg 2s2 2p6 3s2
 
 Converged in 24 iterations to a total energy of -1684.7158 eV
 
 
 Pseudo atomic calculation performed for Ca 3s2 3p6 4s2
 
 Converged in 24 iterations to a total energy of -1001.6116 eV
 
Charge spilling parameter for spin component 1 = 0.25%
 
     Atomic Populations (Mulliken)
     -----------------------------
Species   Ion     s      p      d      f     Total  Charge (e)
==============================================================
  O        1     1.87   4.80   0.00   0.00   6.66    -0.66
  O        2     1.87   4.79   0.00   0.00   6.66    -0.66
  O        3     1.87   4.79   0.00   0.00   6.66    -0.66
  O        4     1.86   4.80   0.00   0.00   6.66    -0.66
  O        5     1.87   4.79   0.00   0.00   6.66    -0.66
  O        6     1.87   4.79   0.00   0.00   6.66    -0.66
  O        7     1.83   4.97   0.00   0.00   6.79    -0.79
  O        8     1.86   4.82   0.00   0.00   6.68    -0.68
  O        9     1.86   4.82   0.00   0.00   6.68    -0.68
  O       10     1.87   4.83   0.00   0.00   6.70    -0.70
  O       11     1.87   4.85   0.00   0.00   6.72    -0.72
  O       12     1.87   4.85   0.00   0.00   6.72    -0.72
  O       13     1.86   4.89   0.00   0.00   6.75    -0.75
  Mg       1     2.49   6.81   0.00   0.00   9.30     0.70
  Mg       2     2.56   6.99   0.00   0.00   9.55     0.45
  Mg       3     2.56   6.99   0.00   0.00   9.55     0.45
  Ca       1     2.17   5.87   1.50   0.00   9.54     0.46
  Ca       2     2.17   5.87   1.50   0.00   9.54     0.46
  Ca       3     2.08   5.94   1.12   0.00   9.14     0.86
  Ca       4     2.01   5.88   1.51   0.00   9.41     0.59
  Ca       5     2.01   5.88   1.51   0.00   9.41     0.59
  Ca       6     2.16   5.94   1.09   0.00   9.19     0.81
  Ca       7     2.16   5.94   1.08   0.00   9.18     0.82
  Ca       8     2.16   5.94   1.08   0.00   9.18     0.82
  Ca       9     2.18   5.94   1.08   0.00   9.20     0.80
  Ca      10     2.01   5.88   1.51   0.00   9.40     0.60
  Ca      11     2.01   5.88   1.51   0.00   9.40     0.60
==============================================================
 
            Bond              Population      Length (A)
============================================================
         O 13 -- Ca 9              0.16        2.10000
         O 13 -- Mg 3              0.59        2.10000
         O 13 -- Mg 2              0.59        2.10000
         O 13 -- Mg 1              0.29        2.10000
         O 12 -- Ca 11             0.50        2.10000
         O 12 -- Ca 8              0.16        2.10000
         O 12 -- Mg 3              0.50        2.10000
         O 12 -- Mg 1              0.31        2.10000
         O 11 -- Ca 10             0.50        2.10000
         O 11 -- Ca 7              0.16        2.10000
         O 11 -- Mg 2              0.50        2.10000
         O 11 -- Mg 1              0.31        2.10000
         O 10 -- Ca 11             0.34        2.10000
         O 10 -- Ca 10             0.34        2.10000
         O 10 -- Ca 6              0.16        2.10000
         O 10 -- Mg 1              0.33        2.10000
         O 9  -- Ca 9              0.14        2.10000
         O 9  -- Ca 8              0.13        2.10000
         O 9  -- Ca 5              0.45        2.10000
         O 9  -- Mg 3              0.55        2.10000
         O 8  -- Ca 9              0.14        2.10000
         O 8  -- Ca 7              0.13        2.10000
         O 8  -- Ca 4              0.45        2.10000
         O 8  -- Mg 2              0.55        2.10000
         O 7  -- Ca 9              0.11        2.10000
         O 7  -- Ca 8              0.12        2.10000
         O 7  -- Ca 7              0.12        2.10000
         O 7  -- Ca 6              0.12        2.10000
         O 7  -- Ca 3              0.24        2.10000
         O 7  -- Mg 1              0.16        2.10000
         O 6  -- Ca 11             0.33        2.10000
         O 6  -- Ca 8              0.15        2.10000
         O 6  -- Ca 6              0.14        2.10000
         O 6  -- Ca 2              0.29        2.10000
         O 5  -- Ca 10             0.33        2.10000
         O 5  -- Ca 7              0.15        2.10000
         O 5  -- Ca 6              0.14        2.10000
         O 5  -- Ca 1              0.29        2.10000
         O 4  -- Ca 9              0.16        2.10000
         O 4  -- Ca 5              0.32        2.10000
         O 4  -- Ca 4              0.32        2.10000
         O 4  -- Ca 3              0.15        2.10000
         O 3  -- Ca 8              0.15        2.10000
         O 3  -- Ca 5              0.32        2.10000
         O 3  -- Ca 3              0.16        2.10000
         O 3  -- Ca 2              0.28        2.10000
         O 2  -- Ca 7              0.15        2.10000
         O 2  -- Ca 4              0.32        2.10000
         O 2  -- Ca 3              0.16        2.10000
         O 2  -- Ca 1              0.28        2.10000
         O 1  -- Ca 6              0.16        2.10000
         O 1  -- Ca 3              0.16        2.10000
         O 1  -- Ca 2              0.29        2.10000
         O 1  -- Ca 1              0.29        2.10000
        Ca 10 -- Ca 11            -1.32        2.10000
        Ca 7  -- Ca 8             -0.35        2.10000
        Ca 6  -- Ca 9             -0.40        2.10000
        Ca 4  -- Ca 5             -0.74        2.10000
        Ca 2  -- Ca 11            -0.70        2.10000
        Ca 2  -- Ca 5             -0.77        2.10000
        Ca 1  -- Ca 10            -0.70        2.10000
        Ca 1  -- Ca 4             -0.77        2.10000
        Ca 1  -- Ca 2             -0.67        2.10000
         Mg 3 -- Ca 11            -1.17        2.10000
         Mg 3 -- Ca 5             -0.98        2.10000
         Mg 2 -- Ca 10            -1.17        2.10000
         Mg 2 -- Ca 4             -0.98        2.10000
         Mg 2 -- Mg 3             -0.66        2.10000
         Mg 1 -- Ca 3             -0.72        2.10000
         O 11 -- O 12             -0.19        2.10000
         O 10 -- O 13             -0.19        2.10000
         O 8  -- O 9              -0.18        2.10000
         O 6  -- O 9              -0.18        2.10000
         O 5  -- O 8              -0.18        2.10000
         O 5  -- O 6              -0.18        2.10000
         O 4  -- O 13             -0.18        2.10000
         O 3  -- O 12             -0.18        2.10000
         O 2  -- O 11             -0.18        2.10000
         O 2  -- O 3              -0.19        2.10000
         O 1  -- O 10             -0.17        2.10000
         O 1  -- O 4              -0.18        2.10000
        Ca 8  -- Ca 11            -0.12        2.96985
        Ca 8  -- Ca 9             -0.04        2.96985
        Ca 7  -- Ca 10            -0.12        2.96985
        Ca 7  -- Ca 9             -0.04        2.96985
        Ca 6  -- Ca 11             0.00        2.96985
        Ca 6  -- Ca 10             0.00        2.96985
        Ca 6  -- Ca 8             -0.09        2.96985
        Ca 6  -- Ca 7             -0.09        2.96985
        Ca 5  -- Ca 9             -0.23        2.96985
        Ca 5  -- Ca 8             -0.19        2.96985
        Ca 4  -- Ca 9             -0.23        2.96985
        Ca 4  -- Ca 7             -0.19        2.96985
        Ca 3  -- Ca 9             -0.15        2.96985
        Ca 3  -- Ca 8             -0.14        2.96985
        Ca 3  -- Ca 7             -0.14        2.96985
        Ca 3  -- Ca 6             -0.10        2.96985
        Ca 3  -- Ca 5             -0.05        2.96985
        Ca 3  -- Ca 4             -0.05        2.96985
        Ca 2  -- Ca 8             -0.13        2.96985
        Ca 2  -- Ca 6             -0.14        2.96985
        Ca 2  -- Ca 3             -0.11        2.96985
        Ca 1  -- Ca 7             -0.13        2.96985
        Ca 1  -- Ca 6             -0.14        2.96985
        Ca 1  -- Ca 3             -0.11        2.96985
         Mg 3 -- Ca 9             -0.14        2.96985
         Mg 3 -- Ca 8             -0.06        2.96985
         Mg 2 -- Ca 9             -0.14        2.96985
         Mg 2 -- Ca 7             -0.06        2.96985
         Mg 1 -- Ca 11            -0.35        2.96985
         Mg 1 -- Ca 10            -0.35        2.96985
         Mg 1 -- Ca 9             -0.03        2.96985
         Mg 1 -- Ca 8             -0.11        2.96985
         Mg 1 -- Ca 7             -0.11        2.96985
         Mg 1 -- Ca 6             -0.13        2.96985
         Mg 1 -- Mg 3             -0.25        2.96985
         Mg 1 -- Mg 2             -0.25        2.96985
         O 12 -- O 13             -0.04        2.96985
         O 11 -- O 13             -0.04        2.96985
         O 10 -- O 12             -0.03        2.96985
         O 10 -- O 11             -0.03        2.96985
         O 9  -- O 13             -0.02        2.96985
         O 9  -- O 12             -0.02        2.96985
         O 8  -- O 13             -0.02        2.96985
         O 8  -- O 11             -0.02        2.96985
         O 7  -- O 13             -0.02        2.96985
         O 7  -- O 12             -0.02        2.96985
         O 7  -- O 11             -0.02        2.96985
         O 7  -- O 10             -0.02        2.96985
         O 7  -- O 9              -0.01        2.96985
         O 7  -- O 8              -0.01        2.96985
         O 6  -- O 12             -0.01        2.96985
         O 6  -- O 10             -0.01        2.96985
         O 6  -- O 7              -0.01        2.96985
         O 5  -- O 11             -0.01        2.96985
         O 5  -- O 10             -0.01        2.96985
         O 5  -- O 7              -0.01        2.96985
         O 4  -- O 9              -0.01        2.96985
         O 4  -- O 8              -0.01        2.96985
         O 4  -- O 7              -0.01        2.96985
         O 3  -- O 9              -0.01        2.96985
         O 3  -- O 7              -0.01        2.96985
         O 3  -- O 6              -0.01        2.96985
         O 3  -- O 4              -0.01        2.96985
         O 2  -- O 8              -0.01        2.96985
         O 2  -- O 7              -0.01        2.96985
         O 2  -- O 5              -0.01        2.96985
         O 2  -- O 4              -0.01        2.96985
         O 1  -- O 7              -0.01        2.96985
         O 1  -- O 6              -0.01        2.96985
         O 1  -- O 5              -0.01        2.96985
         O 1  -- O 3              -0.01        2.96985
         O 1  -- O 2              -0.01        2.96985
        Ca 5  -- Ca 11             0.10        2.96985
        Ca 4  -- Ca 10             0.10        2.96985
        Ca 2  -- Ca 10             0.16        2.96985
        Ca 2  -- Ca 4              0.17        2.96985
        Ca 1  -- Ca 11             0.16        2.96985
        Ca 1  -- Ca 5              0.17        2.96985
         Mg 3 -- Ca 10            -0.39        2.96985
         Mg 3 -- Ca 4             -0.40        2.96985
         Mg 3 -- Ca 2              0.15        2.96985
         Mg 2 -- Ca 11            -0.39        2.96985
         Mg 2 -- Ca 5             -0.40        2.96985
         Mg 2 -- Ca 1              0.15        2.96985
         O 13 -- Ca 11            -0.11        2.96985
         O 13 -- Ca 10            -0.11        2.96985
         O 13 -- Ca 6             -0.04        2.96985
         O 13 -- Ca 5             -0.11        2.96985
         O 13 -- Ca 4             -0.11        2.96985
         O 13 -- Ca 3             -0.07        2.96985
         O 12 -- Ca 10            -0.11        2.96985
         O 12 -- Ca 7             -0.04        2.96985
         O 12 -- Ca 5             -0.08        2.96985
         O 12 -- Ca 3             -0.08        2.96985
         O 12 -- Ca 2             -0.04        2.96985
         O 12 -- Mg 2             -0.17        2.96985
         O 11 -- Ca 11            -0.11        2.96985
         O 11 -- Ca 8             -0.04        2.96985
         O 11 -- Ca 4             -0.08        2.96985
         O 11 -- Ca 3             -0.08        2.96985
         O 11 -- Ca 1             -0.04        2.96985
         O 11 -- Mg 3             -0.17        2.96985
         O 10 -- Ca 9             -0.03        2.96985
         O 10 -- Ca 3             -0.09        2.96985
         O 10 -- Ca 2             -0.03        2.96985
         O 10 -- Ca 1             -0.03        2.96985
         O 10 -- Mg 3             -0.06        2.96985
         O 10 -- Mg 2             -0.06        2.96985
         O 9  -- Ca 11            -0.09        2.96985
         O 9  -- Ca 7             -0.02        2.96985
         O 9  -- Ca 6             -0.03        2.96985
         O 9  -- Ca 4             -0.07        2.96985
         O 9  -- Ca 2             -0.04        2.96985
         O 9  -- Mg 2             -0.20        2.96985
         O 8  -- Ca 10            -0.09        2.96985
         O 8  -- Ca 8             -0.02        2.96985
         O 8  -- Ca 6             -0.03        2.96985
         O 8  -- Ca 5             -0.07        2.96985
         O 8  -- Ca 1             -0.04        2.96985
         O 8  -- Mg 3             -0.20        2.96985
         O 6  -- Ca 10            -0.03        2.96985
         O 6  -- Ca 9             -0.02        2.96985
         O 6  -- Ca 7             -0.03        2.96985
         O 6  -- Ca 5             -0.02        2.96985
         O 6  -- Ca 1             -0.04        2.96985
         O 6  -- Mg 3             -0.04        2.96985
         O 6  -- O 8              -0.03        2.96985
         O 5  -- Ca 11            -0.03        2.96985
         O 5  -- Ca 9             -0.02        2.96985
         O 5  -- Ca 8             -0.03        2.96985
         O 5  -- Ca 4             -0.02        2.96985
         O 5  -- Ca 2             -0.04        2.96985
         O 5  -- Mg 2             -0.04        2.96985
         O 5  -- O 9              -0.03        2.96985
         O 4  -- Ca 6             -0.03        2.96985
         O 4  -- Ca 2             -0.03        2.96985
         O 4  -- Ca 1             -0.03        2.96985
         O 4  -- Mg 3             -0.05        2.96985
         O 4  -- Mg 2             -0.05        2.96985
         O 4  -- Mg 1             -0.05        2.96985
         O 4  -- O 10             -0.02        2.96985
         O 3  -- Ca 11            -0.01        2.96985
         O 3  -- Ca 7             -0.03        2.96985
         O 3  -- Ca 4             -0.03        2.96985
         O 3  -- Ca 1             -0.03        2.96985
         O 3  -- Mg 3             -0.04        2.96985
         O 3  -- Mg 1             -0.06        2.96985
         O 3  -- O 11             -0.02        2.96985
         O 2  -- Ca 10            -0.01        2.96985
         O 2  -- Ca 8             -0.03        2.96985
         O 2  -- Ca 5             -0.03        2.96985
         O 2  -- Ca 2             -0.03        2.96985
         O 2  -- Mg 2             -0.04        2.96985
         O 2  -- Mg 1             -0.06        2.96985
         O 2  -- O 12             -0.02        2.96985
         O 1  -- Ca 11            -0.03        2.96985
         O 1  -- Ca 10            -0.03        2.96985
         O 1  -- Ca 9             -0.03        2.96985
         O 1  -- Ca 5             -0.03        2.96985
         O 1  -- Ca 4             -0.03        2.96985
         O 1  -- Mg 1             -0.05        2.96985
         O 1  -- O 13             -0.03        2.96985
============================================================
 

Writing analysis data to cube_078.castep_bin

Writing model to cube_078.check
 
 A BibTeX formatted list of references used in this run has been written to 
 cube_078.bib
 
Initialisation time =     10.88 s
Calculation time    =    684.18 s
Finalisation time   =     11.77 s
Total time          =    706.82 s
Peak Memory Use     = 1178616 kB
  
Overall parallel efficiency rating: Excellent (99%)                             
  
Data was distributed by:-
k-point (3-way); efficiency rating: Excellent (99%)                             
